# Forces  
# CofR    : (0.000e+00 0.000e+00 0.000e+00)
# Time    forces(pressure viscous porous) moment(pressure viscous porous)
241       	((4.982e+00 -6.318e+00 8.393e+00) (1.440e-01 -1.039e-01 6.614e-02) (0.000e+00 0.000e+00 0.000e+00)) ((-4.734e-01 -2.028e+00 -6.110e+00) (2.780e-03 1.174e-03 -1.845e-02) (0.000e+00 0.000e+00 0.000e+00))
242       	((4.976e+00 -6.480e+00 8.199e+00) (1.448e-01 -1.052e-01 6.645e-02) (0.000e+00 0.000e+00 0.000e+00)) ((-4.318e-01 -1.895e+00 -6.151e+00) (3.003e-03 1.228e-03 -1.910e-02) (0.000e+00 0.000e+00 0.000e+00))
243       	((4.975e+00 -6.608e+00 8.108e+00) (1.444e-01 -1.054e-01 6.702e-02) (0.000e+00 0.000e+00 0.000e+00)) ((-4.116e-01 -1.858e+00 -6.222e+00) (2.835e-03 6.869e-04 -1.926e-02) (0.000e+00 0.000e+00 0.000e+00))
244       	((4.983e+00 -6.711e+00 8.108e+00) (1.435e-01 -1.052e-01 6.695e-02) (0.000e+00 0.000e+00 0.000e+00)) ((-4.148e-01 -1.923e+00 -6.293e+00) (2.743e-03 3.789e-04 -1.931e-02) (0.000e+00 0.000e+00 0.000e+00))
245       	((4.997e+00 -6.767e+00 8.167e+00) (1.433e-01 -1.052e-01 6.612e-02) (0.000e+00 0.000e+00 0.000e+00)) ((-4.325e-01 -2.044e+00 -6.320e+00) (2.990e-03 7.014e-04 -1.954e-02) (0.000e+00 0.000e+00 0.000e+00))
246       	((5.000e+00 -6.747e+00 8.157e+00) (1.439e-01 -1.061e-01 6.532e-02) (0.000e+00 0.000e+00 0.000e+00)) ((-4.401e-01 -2.083e+00 -6.304e+00) (3.478e-03 1.371e-03 -2.011e-02) (0.000e+00 0.000e+00 0.000e+00))
247       	((4.979e+00 -6.763e+00 8.030e+00) (1.449e-01 -1.071e-01 6.514e-02) (0.000e+00 0.000e+00 0.000e+00)) ((-4.242e-01 -2.029e+00 -6.306e+00) (3.834e-03 1.850e-03 -2.062e-02) (0.000e+00 0.000e+00 0.000e+00))
248       	((4.945e+00 -6.837e+00 7.842e+00) (1.452e-01 -1.074e-01 6.570e-02) (0.000e+00 0.000e+00 0.000e+00)) ((-3.954e-01 -1.938e+00 -6.360e+00) (3.752e-03 1.668e-03 -2.065e-02) (0.000e+00 0.000e+00 0.000e+00))
249       	((4.920e+00 -6.894e+00 7.763e+00) (1.446e-01 -1.070e-01 6.641e-02) (0.000e+00 0.000e+00 0.000e+00)) ((-3.840e-01 -1.919e+00 -6.440e+00) (3.394e-03 1.075e-03 -2.036e-02) (0.000e+00 0.000e+00 0.000e+00))
250       	((4.923e+00 -6.859e+00 7.823e+00) (1.438e-01 -1.066e-01 6.637e-02) (0.000e+00 0.000e+00 0.000e+00)) ((-3.998e-01 -1.995e+00 -6.501e+00) (3.237e-03 8.168e-04 -2.026e-02) (0.000e+00 0.000e+00 0.000e+00))
251       	((4.953e+00 -6.744e+00 7.999e+00) (1.437e-01 -1.067e-01 6.550e-02) (0.000e+00 0.000e+00 0.000e+00)) ((-4.329e-01 -2.122e+00 -6.501e+00) (3.477e-03 1.228e-03 -2.052e-02) (0.000e+00 0.000e+00 0.000e+00))
252       	((4.972e+00 -6.665e+00 8.077e+00) (1.444e-01 -1.074e-01 6.462e-02) (0.000e+00 0.000e+00 0.000e+00)) ((-4.461e-01 -2.165e+00 -6.458e+00) (3.935e-03 1.939e-03 -2.106e-02) (0.000e+00 0.000e+00 0.000e+00))
253       	((4.960e+00 -6.693e+00 8.013e+00) (1.453e-01 -1.080e-01 6.444e-02) (0.000e+00 0.000e+00 0.000e+00)) ((-4.286e-01 -2.114e+00 -6.434e+00) (4.193e-03 2.388e-03 -2.135e-02) (0.000e+00 0.000e+00 0.000e+00))
254       	((4.921e+00 -6.809e+00 7.850e+00) (1.454e-01 -1.079e-01 6.529e-02) (0.000e+00 0.000e+00 0.000e+00)) ((-3.944e-01 -2.014e+00 -6.456e+00) (3.922e-03 2.037e-03 -2.098e-02) (0.000e+00 0.000e+00 0.000e+00))
255       	((4.875e+00 -6.944e+00 7.771e+00) (1.444e-01 -1.069e-01 6.652e-02) (0.000e+00 0.000e+00 0.000e+00)) ((-3.776e-01 -1.991e+00 -6.508e+00) (3.291e-03 1.099e-03 -2.021e-02) (0.000e+00 0.000e+00 0.000e+00))
256       	((4.849e+00 -6.993e+00 7.816e+00) (1.430e-01 -1.060e-01 6.690e-02) (0.000e+00 0.000e+00 0.000e+00)) ((-3.902e-01 -2.064e+00 -6.547e+00) (2.859e-03 4.744e-04 -1.966e-02) (0.000e+00 0.000e+00 0.000e+00))
257       	((4.870e+00 -6.923e+00 7.965e+00) (1.421e-01 -1.056e-01 6.592e-02) (0.000e+00 0.000e+00 0.000e+00)) ((-4.230e-01 -2.182e+00 -6.533e+00) (2.969e-03 7.689e-04 -1.967e-02) (0.000e+00 0.000e+00 0.000e+00))
258       	((4.915e+00 -6.770e+00 8.059e+00) (1.423e-01 -1.060e-01 6.428e-02) (0.000e+00 0.000e+00 0.000e+00)) ((-4.429e-01 -2.205e+00 -6.452e+00) (3.532e-03 1.753e-03 -2.020e-02) (0.000e+00 0.000e+00 0.000e+00))
259       	((4.942e+00 -6.682e+00 8.040e+00) (1.433e-01 -1.067e-01 6.321e-02) (0.000e+00 0.000e+00 0.000e+00)) ((-4.313e-01 -2.105e+00 -6.365e+00) (4.082e-03 2.677e-03 -2.081e-02) (0.000e+00 0.000e+00 0.000e+00))
260       	((4.938e+00 -6.669e+00 7.851e+00) (1.440e-01 -1.070e-01 6.335e-02) (0.000e+00 0.000e+00 0.000e+00)) ((-3.907e-01 -1.914e+00 -6.315e+00) (4.141e-03 2.821e-03 -2.088e-02) (0.000e+00 0.000e+00 0.000e+00))
261       	((4.913e+00 -6.683e+00 7.722e+00) (1.437e-01 -1.061e-01 6.464e-02) (0.000e+00 0.000e+00 0.000e+00)) ((-3.642e-01 -1.812e+00 -6.315e+00) (3.568e-03 1.990e-03 -2.016e-02) (0.000e+00 0.000e+00 0.000e+00))
262       	((4.893e+00 -6.669e+00 7.751e+00) (1.425e-01 -1.047e-01 6.578e-02) (0.000e+00 0.000e+00 0.000e+00)) ((-3.692e-01 -1.843e+00 -6.342e+00) (2.845e-03 9.323e-04 -1.921e-02) (0.000e+00 0.000e+00 0.000e+00))
263       	((4.901e+00 -6.571e+00 7.954e+00) (1.413e-01 -1.036e-01 6.546e-02) (0.000e+00 0.000e+00 0.000e+00)) ((-4.042e-01 -1.995e+00 -6.364e+00) (2.619e-03 7.387e-04 -1.871e-02) (0.000e+00 0.000e+00 0.000e+00))
264       	((4.943e+00 -6.404e+00 8.173e+00) (1.409e-01 -1.035e-01 6.371e-02) (0.000e+00 0.000e+00 0.000e+00)) ((-4.352e-01 -2.110e+00 -6.331e+00) (3.099e-03 1.656e-03 -1.897e-02) (0.000e+00 0.000e+00 0.000e+00))
265       	((4.983e+00 -6.219e+00 8.265e+00) (1.416e-01 -1.047e-01 6.202e-02) (0.000e+00 0.000e+00 0.000e+00)) ((-4.393e-01 -2.097e+00 -6.263e+00) (3.958e-03 2.919e-03 -2.002e-02) (0.000e+00 0.000e+00 0.000e+00))
266       	((4.998e+00 -6.118e+00 8.293e+00) (1.427e-01 -1.058e-01 6.153e-02) (0.000e+00 0.000e+00 0.000e+00)) ((-4.187e-01 -1.999e+00 -6.229e+00) (4.468e-03 3.643e-03 -2.079e-02) (0.000e+00 0.000e+00 0.000e+00))
267       	((4.982e+00 -6.143e+00 8.249e+00) (1.431e-01 -1.057e-01 6.255e-02) (0.000e+00 0.000e+00 0.000e+00)) ((-3.907e-01 -1.907e+00 -6.257e+00) (4.213e-03 3.254e-03 -2.060e-02) (0.000e+00 0.000e+00 0.000e+00))
268       	((4.956e+00 -6.214e+00 8.294e+00) (1.424e-01 -1.044e-01 6.433e-02) (0.000e+00 0.000e+00 0.000e+00)) ((-3.902e-01 -1.937e+00 -6.318e+00) (3.373e-03 1.995e-03 -1.963e-02) (0.000e+00 0.000e+00 0.000e+00))
269       	((4.954e+00 -6.148e+00 8.492e+00) (1.411e-01 -1.027e-01 6.535e-02) (0.000e+00 0.000e+00 0.000e+00)) ((-4.303e-01 -2.101e+00 -6.370e+00) (2.585e-03 9.101e-04 -1.858e-02) (0.000e+00 0.000e+00 0.000e+00))
270       	((4.991e+00 -6.029e+00 8.767e+00) (1.403e-01 -1.016e-01 6.471e-02) (0.000e+00 0.000e+00 0.000e+00)) ((-4.857e-01 -2.315e+00 -6.376e+00) (2.461e-03 9.458e-04 -1.813e-02) (0.000e+00 0.000e+00 0.000e+00))
271       	((5.039e+00 -5.884e+00 8.894e+00) (1.403e-01 -1.019e-01 6.334e-02) (0.000e+00 0.000e+00 0.000e+00)) ((-5.160e-01 -2.395e+00 -6.319e+00) (2.963e-03 1.733e-03 -1.861e-02) (0.000e+00 0.000e+00 0.000e+00))
272       	((5.063e+00 -5.803e+00 8.872e+00) (1.412e-01 -1.033e-01 6.272e-02) (0.000e+00 0.000e+00 0.000e+00)) ((-5.143e-01 -2.357e+00 -6.269e+00) (3.542e-03 2.411e-03 -1.953e-02) (0.000e+00 0.000e+00 0.000e+00))
273       	((5.052e+00 -5.858e+00 8.709e+00) (1.419e-01 -1.039e-01 6.334e-02) (0.000e+00 0.000e+00 0.000e+00)) ((-4.863e-01 -2.244e+00 -6.269e+00) (3.596e-03 2.351e-03 -1.979e-02) (0.000e+00 0.000e+00 0.000e+00))
274       	((5.012e+00 -6.017e+00 8.569e+00) (1.416e-01 -1.033e-01 6.483e-02) (0.000e+00 0.000e+00 0.000e+00)) ((-4.678e-01 -2.200e+00 -6.322e+00) (3.041e-03 1.444e-03 -1.919e-02) (0.000e+00 0.000e+00 0.000e+00))
275       	((4.974e+00 -6.141e+00 8.524e+00) (1.405e-01 -1.020e-01 6.607e-02) (0.000e+00 0.000e+00 0.000e+00)) ((-4.812e-01 -2.278e+00 -6.373e+00) (2.299e-03 3.758e-04 -1.825e-02) (0.000e+00 0.000e+00 0.000e+00))
276       	((4.966e+00 -6.171e+00 8.600e+00) (1.396e-01 -1.009e-01 6.595e-02) (0.000e+00 0.000e+00 0.000e+00)) ((-5.264e-01 -2.474e+00 -6.386e+00) (1.971e-03 9.839e-05 -1.766e-02) (0.000e+00 0.000e+00 0.000e+00))
277       	((4.990e+00 -6.105e+00 8.696e+00) (1.395e-01 -1.007e-01 6.470e-02) (0.000e+00 0.000e+00 0.000e+00)) ((-5.695e-01 -2.615e+00 -6.341e+00) (2.262e-03 7.573e-04 -1.776e-02) (0.000e+00 0.000e+00 0.000e+00))
278       	((5.004e+00 -6.021e+00 8.644e+00) (1.405e-01 -1.019e-01 6.356e-02) (0.000e+00 0.000e+00 0.000e+00)) ((-5.793e-01 -2.601e+00 -6.271e+00) (2.932e-03 1.752e-03 -1.862e-02) (0.000e+00 0.000e+00 0.000e+00))
279       	((4.988e+00 -6.079e+00 8.345e+00) (1.419e-01 -1.034e-01 6.323e-02) (0.000e+00 0.000e+00 0.000e+00)) ((-5.401e-01 -2.427e+00 -6.237e+00) (3.473e-03 2.447e-03 -1.947e-02) (0.000e+00 0.000e+00 0.000e+00))
280       	((4.954e+00 -6.162e+00 7.977e+00) (1.425e-01 -1.043e-01 6.400e-02) (0.000e+00 0.000e+00 0.000e+00)) ((-4.873e-01 -2.213e+00 -6.260e+00) (3.483e-03 2.272e-03 -1.973e-02) (0.000e+00 0.000e+00 0.000e+00))
281       	((4.919e+00 -6.210e+00 7.788e+00) (1.420e-01 -1.040e-01 6.532e-02) (0.000e+00 0.000e+00 0.000e+00)) ((-4.637e-01 -2.125e+00 -6.317e+00) (3.005e-03 1.369e-03 -1.939e-02) (0.000e+00 0.000e+00 0.000e+00))
282       	((4.904e+00 -6.150e+00 7.746e+00) (1.408e-01 -1.033e-01 6.573e-02) (0.000e+00 0.000e+00 0.000e+00)) ((-4.714e-01 -2.152e+00 -6.377e+00) (2.649e-03 7.649e-04 -1.908e-02) (0.000e+00 0.000e+00 0.000e+00))
283       	((4.932e+00 -5.956e+00 7.868e+00) (1.400e-01 -1.029e-01 6.462e-02) (0.000e+00 0.000e+00 0.000e+00)) ((-5.018e-01 -2.248e+00 -6.395e+00) (2.840e-03 1.193e-03 -1.920e-02) (0.000e+00 0.000e+00 0.000e+00))
284       	((4.980e+00 -5.685e+00 7.979e+00) (1.403e-01 -1.035e-01 6.283e-02) (0.000e+00 0.000e+00 0.000e+00)) ((-5.215e-01 -2.266e+00 -6.347e+00) (3.525e-03 2.397e-03 -1.989e-02) (0.000e+00 0.000e+00 0.000e+00))
285       	((5.025e+00 -5.416e+00 8.032e+00) (1.416e-01 -1.046e-01 6.170e-02) (0.000e+00 0.000e+00 0.000e+00)) ((-5.174e-01 -2.164e+00 -6.286e+00) (4.209e-03 3.583e-03 -2.065e-02) (0.000e+00 0.000e+00 0.000e+00))
286       	((5.053e+00 -5.222e+00 8.007e+00) (1.427e-01 -1.053e-01 6.184e-02) (0.000e+00 0.000e+00 0.000e+00)) ((-4.915e-01 -1.977e+00 -6.260e+00) (4.411e-03 3.967e-03 -2.092e-02) (0.000e+00 0.000e+00 0.000e+00))
287       	((5.056e+00 -5.133e+00 8.046e+00) (1.427e-01 -1.051e-01 6.321e-02) (0.000e+00 0.000e+00 0.000e+00)) ((-4.742e-01 -1.872e+00 -6.282e+00) (3.973e-03 3.318e-03 -2.047e-02) (0.000e+00 0.000e+00 0.000e+00))
288       	((5.056e+00 -5.032e+00 8.265e+00) (1.417e-01 -1.041e-01 6.467e-02) (0.000e+00 0.000e+00 0.000e+00)) ((-4.857e-01 -1.897e+00 -6.331e+00) (3.285e-03 2.275e-03 -1.972e-02) (0.000e+00 0.000e+00 0.000e+00))
289       	((5.082e+00 -4.878e+00 8.637e+00) (1.406e-01 -1.030e-01 6.505e-02) (0.000e+00 0.000e+00 0.000e+00)) ((-5.223e-01 -2.023e+00 -6.369e+00) (2.856e-03 1.777e-03 -1.917e-02) (0.000e+00 0.000e+00 0.000e+00))
290       	((5.129e+00 -4.749e+00 8.913e+00) (1.402e-01 -1.025e-01 6.421e-02) (0.000e+00 0.000e+00 0.000e+00)) ((-5.470e-01 -2.117e+00 -6.357e+00) (2.966e-03 2.243e-03 -1.914e-02) (0.000e+00 0.000e+00 0.000e+00))
291       	((5.167e+00 -4.645e+00 8.993e+00) (1.411e-01 -1.029e-01 6.314e-02) (0.000e+00 0.000e+00 0.000e+00)) ((-5.446e-01 -2.104e+00 -6.305e+00) (3.439e-03 3.206e-03 -1.963e-02) (0.000e+00 0.000e+00 0.000e+00))
292       	((5.181e+00 -4.581e+00 8.918e+00) (1.427e-01 -1.033e-01 6.308e-02) (0.000e+00 0.000e+00 0.000e+00)) ((-5.183e-01 -1.993e+00 -6.246e+00) (3.637e-03 3.755e-03 -1.976e-02) (0.000e+00 0.000e+00 0.000e+00))
293       	((5.157e+00 -4.631e+00 8.717e+00) (1.438e-01 -1.027e-01 6.419e-02) (0.000e+00 0.000e+00 0.000e+00)) ((-4.807e-01 -1.869e+00 -6.207e+00) (3.239e-03 3.414e-03 -1.908e-02) (0.000e+00 0.000e+00 0.000e+00))
294       	((5.105e+00 -4.753e+00 8.569e+00) (1.440e-01 -1.013e-01 6.590e-02) (0.000e+00 0.000e+00 0.000e+00)) ((-4.616e-01 -1.841e+00 -6.184e+00) (2.399e-03 2.387e-03 -1.778e-02) (0.000e+00 0.000e+00 0.000e+00))
295       	((5.047e+00 -4.878e+00 8.507e+00) (1.436e-01 -9.948e-02 6.706e-02) (0.000e+00 0.000e+00 0.000e+00)) ((-4.700e-01 -1.927e+00 -6.152e+00) (1.573e-03 1.425e-03 -1.640e-02) (0.000e+00 0.000e+00 0.000e+00))
296       	((5.011e+00 -5.001e+00 8.541e+00) (1.431e-01 -9.782e-02 6.675e-02) (0.000e+00 0.000e+00 0.000e+00)) ((-4.970e-01 -2.089e+00 -6.106e+00) (1.194e-03 1.305e-03 -1.537e-02) (0.000e+00 0.000e+00 0.000e+00))
297       	((5.000e+00 -5.099e+00 8.554e+00) (1.431e-01 -9.701e-02 6.518e-02) (0.000e+00 0.000e+00 0.000e+00)) ((-5.147e-01 -2.188e+00 -6.039e+00) (1.437e-03 2.128e-03 -1.508e-02) (0.000e+00 0.000e+00 0.000e+00))
298       	((4.985e+00 -5.207e+00 8.412e+00) (1.441e-01 -9.767e-02 6.350e-02) (0.000e+00 0.000e+00 0.000e+00)) ((-5.028e-01 -2.159e+00 -5.956e+00) (2.128e-03 3.355e-03 -1.563e-02) (0.000e+00 0.000e+00 0.000e+00))
299       	((4.935e+00 -5.420e+00 8.058e+00) (1.457e-01 -9.885e-02 6.292e-02) (0.000e+00 0.000e+00 0.000e+00)) ((-4.567e-01 -2.015e+00 -5.887e+00) (2.653e-03 4.082e-03 -1.623e-02) (0.000e+00 0.000e+00 0.000e+00))
300       	((4.866e+00 -5.661e+00 7.738e+00) (1.467e-01 -9.948e-02 6.349e-02) (0.000e+00 0.000e+00 0.000e+00)) ((-4.124e-01 -1.886e+00 -5.876e+00) (2.689e-03 3.922e-03 -1.633e-02) (0.000e+00 0.000e+00 0.000e+00))
301       	((4.788e+00 -5.902e+00 7.584e+00) (1.465e-01 -9.946e-02 6.476e-02) (0.000e+00 0.000e+00 0.000e+00)) ((-3.949e-01 -1.867e+00 -5.908e+00) (2.290e-03 2.936e-03 -1.605e-02) (0.000e+00 0.000e+00 0.000e+00))
302       	((4.707e+00 -6.148e+00 7.540e+00) (1.453e-01 -9.902e-02 6.542e-02) (0.000e+00 0.000e+00 0.000e+00)) ((-4.049e-01 -1.982e+00 -5.945e+00) (1.869e-03 1.934e-03 -1.571e-02) (0.000e+00 0.000e+00 0.000e+00))
303       	((4.669e+00 -6.306e+00 7.635e+00) (1.443e-01 -9.874e-02 6.466e-02) (0.000e+00 0.000e+00 0.000e+00)) ((-4.375e-01 -2.185e+00 -5.960e+00) (1.893e-03 1.804e-03 -1.572e-02) (0.000e+00 0.000e+00 0.000e+00))
304       	((4.683e+00 -6.299e+00 7.705e+00) (1.443e-01 -9.927e-02 6.298e-02) (0.000e+00 0.000e+00 0.000e+00)) ((-4.605e-01 -2.283e+00 -5.917e+00) (2.459e-03 2.527e-03 -1.635e-02) (0.000e+00 0.000e+00 0.000e+00))
305       	((4.697e+00 -6.308e+00 7.583e+00) (1.453e-01 -1.009e-01 6.175e-02) (0.000e+00 0.000e+00 0.000e+00)) ((-4.456e-01 -2.228e+00 -5.841e+00) (3.243e-03 3.393e-03 -1.754e-02) (0.000e+00 0.000e+00 0.000e+00))
306       	((4.688e+00 -6.388e+00 7.182e+00) (1.463e-01 -1.026e-01 6.168e-02) (0.000e+00 0.000e+00 0.000e+00)) ((-3.828e-01 -1.985e+00 -5.781e+00) (3.739e-03 3.651e-03 -1.857e-02) (0.000e+00 0.000e+00 0.000e+00))
307       	((4.661e+00 -6.486e+00 6.785e+00) (1.462e-01 -1.034e-01 6.288e-02) (0.000e+00 0.000e+00 0.000e+00)) ((-3.202e-01 -1.745e+00 -5.785e+00) (3.628e-03 2.870e-03 -1.892e-02) (0.000e+00 0.000e+00 0.000e+00))
308       	((4.613e+00 -6.600e+00 6.600e+00) (1.450e-01 -1.033e-01 6.458e-02) (0.000e+00 0.000e+00 0.000e+00)) ((-2.941e-01 -1.674e+00 -5.844e+00) (3.085e-03 1.451e-03 -1.873e-02) (0.000e+00 0.000e+00 0.000e+00))
309       	((4.564e+00 -6.668e+00 6.525e+00) (1.433e-01 -1.028e-01 6.519e-02) (0.000e+00 0.000e+00 0.000e+00)) ((-3.038e-01 -1.756e+00 -5.901e+00) (2.685e-03 5.116e-04 -1.848e-02) (0.000e+00 0.000e+00 0.000e+00))
310       	((4.560e+00 -6.620e+00 6.613e+00) (1.422e-01 -1.024e-01 6.431e-02) (0.000e+00 0.000e+00 0.000e+00)) ((-3.416e-01 -1.935e+00 -5.915e+00) (2.757e-03 6.270e-04 -1.851e-02) (0.000e+00 0.000e+00 0.000e+00))
311       	((4.591e+00 -6.431e+00 6.667e+00) (1.422e-01 -1.030e-01 6.273e-02) (0.000e+00 0.000e+00 0.000e+00)) ((-3.686e-01 -1.998e+00 -5.857e+00) (3.356e-03 1.550e-03 -1.921e-02) (0.000e+00 0.000e+00 0.000e+00))
312       	((4.609e+00 -6.284e+00 6.581e+00) (1.431e-01 -1.046e-01 6.188e-02) (0.000e+00 0.000e+00 0.000e+00)) ((-3.636e-01 -1.931e+00 -5.783e+00) (4.037e-03 2.397e-03 -2.032e-02) (0.000e+00 0.000e+00 0.000e+00))
313       	((4.611e+00 -6.215e+00 6.328e+00) (1.436e-01 -1.058e-01 6.215e-02) (0.000e+00 0.000e+00 0.000e+00)) ((-3.271e-01 -1.737e+00 -5.746e+00) (4.296e-03 2.516e-03 -2.100e-02) (0.000e+00 0.000e+00 0.000e+00))
314       	((4.598e+00 -6.214e+00 6.174e+00) (1.431e-01 -1.059e-01 6.331e-02) (0.000e+00 0.000e+00 0.000e+00)) ((-3.026e-01 -1.624e+00 -5.781e+00) (3.988e-03 1.743e-03 -2.094e-02) (0.000e+00 0.000e+00 0.000e+00))
315       	((4.588e+00 -6.228e+00 6.190e+00) (1.416e-01 -1.053e-01 6.435e-02) (0.000e+00 0.000e+00 0.000e+00)) ((-3.083e-01 -1.648e+00 -5.849e+00) (3.447e-03 7.286e-04 -2.046e-02) (0.000e+00 0.000e+00 0.000e+00))
316       	((4.607e+00 -6.158e+00 6.354e+00) (1.404e-01 -1.043e-01 6.435e-02) (0.000e+00 0.000e+00 0.000e+00)) ((-3.421e-01 -1.780e+00 -5.885e+00) (3.109e-03 3.506e-04 -1.988e-02) (0.000e+00 0.000e+00 0.000e+00))
317       	((4.647e+00 -6.027e+00 6.531e+00) (1.399e-01 -1.038e-01 6.344e-02) (0.000e+00 0.000e+00 0.000e+00)) ((-3.727e-01 -1.879e+00 -5.871e+00) (3.248e-03 8.422e-04 -1.974e-02) (0.000e+00 0.000e+00 0.000e+00))
318       	((4.677e+00 -5.880e+00 6.584e+00) (1.405e-01 -1.044e-01 6.288e-02) (0.000e+00 0.000e+00 0.000e+00)) ((-3.790e-01 -1.856e+00 -5.824e+00) (3.623e-03 1.532e-03 -2.016e-02) (0.000e+00 0.000e+00 0.000e+00))
319       	((4.699e+00 -5.766e+00 6.594e+00) (1.415e-01 -1.051e-01 6.325e-02) (0.000e+00 0.000e+00 0.000e+00)) ((-3.696e-01 -1.754e+00 -5.805e+00) (3.746e-03 1.773e-03 -2.044e-02) (0.000e+00 0.000e+00 0.000e+00))
320       	((4.716e+00 -5.709e+00 6.580e+00) (1.416e-01 -1.050e-01 6.427e-02) (0.000e+00 0.000e+00 0.000e+00)) ((-3.584e-01 -1.659e+00 -5.832e+00) (3.443e-03 1.323e-03 -2.020e-02) (0.000e+00 0.000e+00 0.000e+00))
321       	((4.739e+00 -5.682e+00 6.647e+00) (1.409e-01 -1.043e-01 6.510e-02) (0.000e+00 0.000e+00 0.000e+00)) ((-3.662e-01 -1.660e+00 -5.885e+00) (2.956e-03 6.212e-04 -1.961e-02) (0.000e+00 0.000e+00 0.000e+00))
322       	((4.783e+00 -5.572e+00 6.836e+00) (1.401e-01 -1.033e-01 6.515e-02) (0.000e+00 0.000e+00 0.000e+00)) ((-3.980e-01 -1.750e+00 -5.918e+00) (2.647e-03 3.320e-04 -1.901e-02) (0.000e+00 0.000e+00 0.000e+00))
323       	((4.823e+00 -5.471e+00 7.020e+00) (1.398e-01 -1.029e-01 6.463e-02) (0.000e+00 0.000e+00 0.000e+00)) ((-4.277e-01 -1.840e+00 -5.919e+00) (2.702e-03 6.233e-04 -1.878e-02) (0.000e+00 0.000e+00 0.000e+00))
324       	((4.849e+00 -5.422e+00 7.086e+00) (1.404e-01 -1.033e-01 6.440e-02) (0.000e+00 0.000e+00 0.000e+00)) ((-4.380e-01 -1.851e+00 -5.911e+00) (2.914e-03 1.039e-03 -1.895e-02) (0.000e+00 0.000e+00 0.000e+00))
325       	((4.866e+00 -5.427e+00 7.081e+00) (1.412e-01 -1.037e-01 6.479e-02) (0.000e+00 0.000e+00 0.000e+00)) ((-4.359e-01 -1.819e+00 -5.935e+00) (2.926e-03 1.092e-03 -1.900e-02) (0.000e+00 0.000e+00 0.000e+00))
326       	((4.887e+00 -5.491e+00 7.075e+00) (1.414e-01 -1.034e-01 6.551e-02) (0.000e+00 0.000e+00 0.000e+00)) ((-4.354e-01 -1.804e+00 -5.992e+00) (2.623e-03 6.537e-04 -1.868e-02) (0.000e+00 0.000e+00 0.000e+00))
327       	((4.922e+00 -5.566e+00 7.127e+00) (1.409e-01 -1.025e-01 6.593e-02) (0.000e+00 0.000e+00 0.000e+00)) ((-4.490e-01 -1.849e+00 -6.040e+00) (2.228e-03 1.328e-04 -1.814e-02) (0.000e+00 0.000e+00 0.000e+00))
328       	((4.961e+00 -5.652e+00 7.239e+00) (1.405e-01 -1.017e-01 6.583e-02) (0.000e+00 0.000e+00 0.000e+00)) ((-4.734e-01 -1.946e+00 -6.046e+00) (2.023e-03 -3.903e-05 -1.769e-02) (0.000e+00 0.000e+00 0.000e+00))
329       	((4.984e+00 -5.732e+00 7.309e+00) (1.406e-01 -1.014e-01 6.554e-02) (0.000e+00 0.000e+00 0.000e+00)) ((-4.893e-01 -2.009e+00 -6.003e+00) (2.073e-03 1.861e-04 -1.753e-02) (0.000e+00 0.000e+00 0.000e+00))
330       	((4.991e+00 -5.792e+00 7.290e+00) (1.415e-01 -1.016e-01 6.546e-02) (0.000e+00 0.000e+00 0.000e+00)) ((-4.874e-01 -1.990e+00 -5.956e+00) (2.193e-03 5.068e-04 -1.752e-02) (0.000e+00 0.000e+00 0.000e+00))
331       	((4.988e+00 -5.865e+00 7.232e+00) (1.423e-01 -1.017e-01 6.563e-02) (0.000e+00 0.000e+00 0.000e+00)) ((-4.740e-01 -1.927e+00 -5.937e+00) (2.173e-03 6.086e-04 -1.738e-02) (0.000e+00 0.000e+00 0.000e+00))
332       	((4.993e+00 -5.872e+00 7.198e+00) (1.425e-01 -1.013e-01 6.572e-02) (0.000e+00 0.000e+00 0.000e+00)) ((-4.655e-01 -1.869e+00 -5.926e+00) (2.001e-03 5.176e-04 -1.701e-02) (0.000e+00 0.000e+00 0.000e+00))
333       	((5.005e+00 -5.811e+00 7.224e+00) (1.423e-01 -1.007e-01 6.532e-02) (0.000e+00 0.000e+00 0.000e+00)) ((-4.678e-01 -1.852e+00 -5.902e+00) (1.927e-03 6.184e-04 -1.667e-02) (0.000e+00 0.000e+00 0.000e+00))
334       	((5.013e+00 -5.710e+00 7.284e+00) (1.424e-01 -1.004e-01 6.439e-02) (0.000e+00 0.000e+00 0.000e+00)) ((-4.729e-01 -1.853e+00 -5.860e+00) (2.179e-03 1.201e-03 -1.670e-02) (0.000e+00 0.000e+00 0.000e+00))
335       	((5.000e+00 -5.631e+00 7.312e+00) (1.433e-01 -1.009e-01 6.355e-02) (0.000e+00 0.000e+00 0.000e+00)) ((-4.666e-01 -1.829e+00 -5.824e+00) (2.631e-03 2.039e-03 -1.705e-02) (0.000e+00 0.000e+00 0.000e+00))
336       	((4.967e+00 -5.596e+00 7.293e+00) (1.446e-01 -1.017e-01 6.336e-02) (0.000e+00 0.000e+00 0.000e+00)) ((-4.463e-01 -1.757e+00 -5.829e+00) (2.946e-03 2.632e-03 -1.732e-02) (0.000e+00 0.000e+00 0.000e+00))
337       	((4.929e+00 -5.615e+00 7.279e+00) (1.455e-01 -1.018e-01 6.372e-02) (0.000e+00 0.000e+00 0.000e+00)) ((-4.261e-01 -1.687e+00 -5.876e+00) (2.889e-03 2.670e-03 -1.714e-02) (0.000e+00 0.000e+00 0.000e+00))
338       	((4.901e+00 -5.681e+00 7.355e+00) (1.454e-01 -1.014e-01 6.409e-02) (0.000e+00 0.000e+00 0.000e+00)) ((-4.235e-01 -1.705e+00 -5.943e+00) (2.606e-03 2.334e-03 -1.670e-02) (0.000e+00 0.000e+00 0.000e+00))
339       	((4.897e+00 -5.683e+00 7.523e+00) (1.450e-01 -1.009e-01 6.388e-02) (0.000e+00 0.000e+00 0.000e+00)) ((-4.429e-01 -1.800e+00 -5.989e+00) (2.499e-03 2.190e-03 -1.654e-02) (0.000e+00 0.000e+00 0.000e+00))
340       	((4.923e+00 -5.611e+00 7.768e+00) (1.451e-01 -1.010e-01 6.307e-02) (0.000e+00 0.000e+00 0.000e+00)) ((-4.757e-01 -1.937e+00 -5.987e+00) (2.768e-03 2.550e-03 -1.689e-02) (0.000e+00 0.000e+00 0.000e+00))
341       	((4.939e+00 -5.591e+00 7.891e+00) (1.458e-01 -1.019e-01 6.254e-02) (0.000e+00 0.000e+00 0.000e+00)) ((-4.874e-01 -1.998e+00 -5.954e+00) (3.232e-03 3.082e-03 -1.760e-02) (0.000e+00 0.000e+00 0.000e+00))
342       	((4.923e+00 -5.676e+00 7.854e+00) (1.468e-01 -1.030e-01 6.290e-02) (0.000e+00 0.000e+00 0.000e+00)) ((-4.665e-01 -1.958e+00 -5.950e+00) (3.499e-03 3.243e-03 -1.817e-02) (0.000e+00 0.000e+00 0.000e+00))
343       	((4.871e+00 -5.869e+00 7.713e+00) (1.470e-01 -1.033e-01 6.429e-02) (0.000e+00 0.000e+00 0.000e+00)) ((-4.294e-01 -1.867e+00 -6.001e+00) (3.247e-03 2.615e-03 -1.809e-02) (0.000e+00 0.000e+00 0.000e+00))
344       	((4.805e+00 -6.081e+00 7.669e+00) (1.461e-01 -1.028e-01 6.586e-02) (0.000e+00 0.000e+00 0.000e+00)) ((-4.138e-01 -1.868e+00 -6.088e+00) (2.621e-03 1.482e-03 -1.746e-02) (0.000e+00 0.000e+00 0.000e+00))
345       	((4.753e+00 -6.209e+00 7.723e+00) (1.447e-01 -1.022e-01 6.645e-02) (0.000e+00 0.000e+00 0.000e+00)) ((-4.306e-01 -1.980e+00 -6.154e+00) (2.153e-03 7.086e-04 -1.697e-02) (0.000e+00 0.000e+00 0.000e+00))
346       	((4.758e+00 -6.214e+00 7.919e+00) (1.441e-01 -1.019e-01 6.574e-02) (0.000e+00 0.000e+00 0.000e+00)) ((-4.774e-01 -2.181e+00 -6.145e+00) (2.187e-03 8.811e-04 -1.699e-02) (0.000e+00 0.000e+00 0.000e+00))
347       	((4.807e+00 -6.079e+00 8.051e+00) (1.444e-01 -1.024e-01 6.444e-02) (0.000e+00 0.000e+00 0.000e+00)) ((-5.140e-01 -2.265e+00 -6.045e+00) (2.693e-03 1.735e-03 -1.761e-02) (0.000e+00 0.000e+00 0.000e+00))
348       	((4.848e+00 -5.981e+00 8.027e+00) (1.455e-01 -1.035e-01 6.373e-02) (0.000e+00 0.000e+00 0.000e+00)) ((-5.142e-01 -2.190e+00 -5.917e+00) (3.252e-03 2.597e-03 -1.844e-02) (0.000e+00 0.000e+00 0.000e+00))
349       	((4.859e+00 -6.021e+00 7.762e+00) (1.462e-01 -1.044e-01 6.409e-02) (0.000e+00 0.000e+00 0.000e+00)) ((-4.681e-01 -1.947e+00 -5.824e+00) (3.430e-03 2.809e-03 -1.883e-02) (0.000e+00 0.000e+00 0.000e+00))
350       	((4.840e+00 -6.148e+00 7.526e+00) (1.458e-01 -1.045e-01 6.544e-02) (0.000e+00 0.000e+00 0.000e+00)) ((-4.251e-01 -1.770e+00 -5.830e+00) (3.102e-03 2.037e-03 -1.872e-02) (0.000e+00 0.000e+00 0.000e+00))
351       	((4.803e+00 -6.307e+00 7.514e+00) (1.443e-01 -1.041e-01 6.686e-02) (0.000e+00 0.000e+00 0.000e+00)) ((-4.196e-01 -1.782e+00 -5.900e+00) (2.535e-03 8.261e-04 -1.837e-02) (0.000e+00 0.000e+00 0.000e+00))
352       	((4.788e+00 -6.398e+00 7.694e+00) (1.429e-01 -1.037e-01 6.708e-02) (0.000e+00 0.000e+00 0.000e+00)) ((-4.529e-01 -1.956e+00 -5.962e+00) (2.254e-03 2.510e-04 -1.819e-02) (0.000e+00 0.000e+00 0.000e+00))
353       	((4.821e+00 -6.335e+00 7.929e+00) (1.428e-01 -1.037e-01 6.600e-02) (0.000e+00 0.000e+00 0.000e+00)) ((-4.945e-01 -2.121e+00 -5.952e+00) (2.513e-03 7.171e-04 -1.844e-02) (0.000e+00 0.000e+00 0.000e+00))
354       	((4.864e+00 -6.174e+00 7.984e+00) (1.438e-01 -1.048e-01 6.473e-02) (0.000e+00 0.000e+00 0.000e+00)) ((-5.065e-01 -2.113e+00 -5.876e+00) (3.167e-03 1.677e-03 -1.932e-02) (0.000e+00 0.000e+00 0.000e+00))
355       	((4.893e+00 -6.034e+00 7.888e+00) (1.451e-01 -1.062e-01 6.442e-02) (0.000e+00 0.000e+00 0.000e+00)) ((-4.807e-01 -1.945e+00 -5.816e+00) (3.678e-03 2.298e-03 -2.025e-02) (0.000e+00 0.000e+00 0.000e+00))
356       	((4.901e+00 -5.978e+00 7.646e+00) (1.456e-01 -1.069e-01 6.512e-02) (0.000e+00 0.000e+00 0.000e+00)) ((-4.300e-01 -1.707e+00 -5.825e+00) (3.710e-03 2.079e-03 -2.063e-02) (0.000e+00 0.000e+00 0.000e+00))
357       	((4.887e+00 -6.024e+00 7.565e+00) (1.449e-01 -1.067e-01 6.635e-02) (0.000e+00 0.000e+00 0.000e+00)) ((-4.037e-01 -1.631e+00 -5.907e+00) (3.296e-03 1.112e-03 -2.041e-02) (0.000e+00 0.000e+00 0.000e+00))
358       	((4.890e+00 -5.964e+00 7.716e+00) (1.437e-01 -1.059e-01 6.709e-02) (0.000e+00 0.000e+00 0.000e+00)) ((-4.210e-01 -1.713e+00 -6.008e+00) (2.842e-03 2.435e-04 -1.994e-02) (0.000e+00 0.000e+00 0.000e+00))
359       	((4.936e+00 -5.802e+00 8.062e+00) (1.433e-01 -1.052e-01 6.665e-02) (0.000e+00 0.000e+00 0.000e+00)) ((-4.682e-01 -1.895e+00 -6.073e+00) (2.738e-03 2.360e-04 -1.956e-02) (0.000e+00 0.000e+00 0.000e+00))
360       	((4.994e+00 -5.637e+00 8.306e+00) (1.437e-01 -1.053e-01 6.569e-02) (0.000e+00 0.000e+00 0.000e+00)) ((-4.980e-01 -1.977e+00 -6.068e+00) (3.071e-03 8.659e-04 -1.978e-02) (0.000e+00 0.000e+00 0.000e+00))
