# Forces  
# CofR    : (0.000e+00 0.000e+00 0.000e+00)
# Time    forces(pressure viscous porous) moment(pressure viscous porous)
241       	((1.395e+01 -2.721e+01 3.753e+01) (1.106e+00 9.031e-02 2.099e-01) (0.000e+00 0.000e+00 0.000e+00)) ((-3.118e+00 -3.959e+01 -1.903e+01) (-8.668e-02 4.284e-03 6.103e-01) (0.000e+00 0.000e+00 0.000e+00))
242       	((1.401e+01 -2.794e+01 3.756e+01) (1.103e+00 8.759e-02 2.144e-01) (0.000e+00 0.000e+00 0.000e+00)) ((-2.837e+00 -3.959e+01 -2.002e+01) (-8.825e-02 8.315e-04 6.053e-01) (0.000e+00 0.000e+00 0.000e+00))
243       	((1.415e+01 -2.796e+01 3.774e+01) (1.100e+00 8.375e-02 2.149e-01) (0.000e+00 0.000e+00 0.000e+00)) ((-2.823e+00 -3.984e+01 -2.010e+01) (-8.794e-02 -1.151e-03 6.010e-01) (0.000e+00 0.000e+00 0.000e+00))
244       	((1.433e+01 -2.737e+01 3.813e+01) (1.095e+00 8.075e-02 2.118e-01) (0.000e+00 0.000e+00 0.000e+00)) ((-3.092e+00 -4.036e+01 -1.937e+01) (-8.615e-02 -1.958e-03 5.969e-01) (0.000e+00 0.000e+00 0.000e+00))
245       	((1.445e+01 -2.643e+01 3.865e+01) (1.087e+00 8.004e-02 2.070e-01) (0.000e+00 0.000e+00 0.000e+00)) ((-3.553e+00 -4.106e+01 -1.811e+01) (-8.376e-02 -2.573e-03 5.933e-01) (0.000e+00 0.000e+00 0.000e+00))
246       	((1.449e+01 -2.595e+01 3.900e+01) (1.078e+00 8.053e-02 2.030e-01) (0.000e+00 0.000e+00 0.000e+00)) ((-3.849e+00 -4.156e+01 -1.737e+01) (-8.182e-02 -4.146e-03 5.900e-01) (0.000e+00 0.000e+00 0.000e+00))
247       	((1.451e+01 -2.589e+01 3.919e+01) (1.069e+00 7.918e-02 1.998e-01) (0.000e+00 0.000e+00 0.000e+00)) ((-3.977e+00 -4.190e+01 -1.710e+01) (-8.014e-02 -6.258e-03 5.858e-01) (0.000e+00 0.000e+00 0.000e+00))
248       	((1.458e+01 -2.602e+01 3.927e+01) (1.062e+00 7.589e-02 1.953e-01) (0.000e+00 0.000e+00 0.000e+00)) ((-3.987e+00 -4.208e+01 -1.711e+01) (-7.760e-02 -6.919e-03 5.811e-01) (0.000e+00 0.000e+00 0.000e+00))
249       	((1.467e+01 -2.588e+01 3.927e+01) (1.056e+00 7.222e-02 1.887e-01) (0.000e+00 0.000e+00 0.000e+00)) ((-4.049e+00 -4.213e+01 -1.685e+01) (-7.400e-02 -5.232e-03 5.766e-01) (0.000e+00 0.000e+00 0.000e+00))
250       	((1.474e+01 -2.534e+01 3.933e+01) (1.051e+00 7.016e-02 1.819e-01) (0.000e+00 0.000e+00 0.000e+00)) ((-4.260e+00 -4.220e+01 -1.610e+01) (-7.042e-02 -2.173e-03 5.736e-01) (0.000e+00 0.000e+00 0.000e+00))
251       	((1.470e+01 -2.462e+01 3.942e+01) (1.045e+00 7.067e-02 1.773e-01) (0.000e+00 0.000e+00 0.000e+00)) ((-4.546e+00 -4.235e+01 -1.514e+01) (-6.813e-02 3.101e-04 5.722e-01) (0.000e+00 0.000e+00 0.000e+00))
252       	((1.459e+01 -2.435e+01 3.942e+01) (1.041e+00 7.164e-02 1.760e-01) (0.000e+00 0.000e+00 0.000e+00)) ((-4.640e+00 -4.241e+01 -1.480e+01) (-6.743e-02 9.162e-04 5.712e-01) (0.000e+00 0.000e+00 0.000e+00))
253       	((1.448e+01 -2.444e+01 3.936e+01) (1.039e+00 7.105e-02 1.768e-01) (0.000e+00 0.000e+00 0.000e+00)) ((-4.564e+00 -4.245e+01 -1.502e+01) (-6.765e-02 -4.403e-05 5.699e-01) (0.000e+00 0.000e+00 0.000e+00))
254       	((1.447e+01 -2.477e+01 3.930e+01) (1.039e+00 6.906e-02 1.776e-01) (0.000e+00 0.000e+00 0.000e+00)) ((-4.364e+00 -4.243e+01 -1.560e+01) (-6.769e-02 -9.765e-04 5.689e-01) (0.000e+00 0.000e+00 0.000e+00))
255       	((1.454e+01 -2.479e+01 3.930e+01) (1.041e+00 6.675e-02 1.775e-01) (0.000e+00 0.000e+00 0.000e+00)) ((-4.276e+00 -4.240e+01 -1.582e+01) (-6.723e-02 -1.423e-03 5.684e-01) (0.000e+00 0.000e+00 0.000e+00))
256       	((1.462e+01 -2.447e+01 3.942e+01) (1.042e+00 6.645e-02 1.770e-01) (0.000e+00 0.000e+00 0.000e+00)) ((-4.349e+00 -4.241e+01 -1.563e+01) (-6.673e-02 -1.604e-03 5.689e-01) (0.000e+00 0.000e+00 0.000e+00))
257       	((1.459e+01 -2.400e+01 3.964e+01) (1.042e+00 6.891e-02 1.775e-01) (0.000e+00 0.000e+00 0.000e+00)) ((-4.559e+00 -4.252e+01 -1.517e+01) (-6.699e-02 -2.374e-03 5.706e-01) (0.000e+00 0.000e+00 0.000e+00))
258       	((1.448e+01 -2.401e+01 3.977e+01) (1.042e+00 7.263e-02 1.803e-01) (0.000e+00 0.000e+00 0.000e+00)) ((-4.612e+00 -4.254e+01 -1.522e+01) (-6.855e-02 -4.294e-03 5.729e-01) (0.000e+00 0.000e+00 0.000e+00))
259       	((1.433e+01 -2.461e+01 3.977e+01) (1.044e+00 7.441e-02 1.840e-01) (0.000e+00 0.000e+00 0.000e+00)) ((-4.450e+00 -4.248e+01 -1.598e+01) (-7.050e-02 -6.397e-03 5.746e-01) (0.000e+00 0.000e+00 0.000e+00))
260       	((1.429e+01 -2.539e+01 3.959e+01) (1.048e+00 7.376e-02 1.861e-01) (0.000e+00 0.000e+00 0.000e+00)) ((-4.132e+00 -4.229e+01 -1.696e+01) (-7.165e-02 -7.306e-03 5.760e-01) (0.000e+00 0.000e+00 0.000e+00))
261       	((1.435e+01 -2.565e+01 3.951e+01) (1.053e+00 7.193e-02 1.858e-01) (0.000e+00 0.000e+00 0.000e+00)) ((-3.981e+00 -4.226e+01 -1.727e+01) (-7.158e-02 -6.097e-03 5.776e-01) (0.000e+00 0.000e+00 0.000e+00))
262       	((1.451e+01 -2.546e+01 3.959e+01) (1.058e+00 7.023e-02 1.828e-01) (0.000e+00 0.000e+00 0.000e+00)) ((-4.040e+00 -4.237e+01 -1.697e+01) (-7.027e-02 -2.632e-03 5.797e-01) (0.000e+00 0.000e+00 0.000e+00))
263       	((1.466e+01 -2.478e+01 3.991e+01) (1.061e+00 7.140e-02 1.781e-01) (0.000e+00 0.000e+00 0.000e+00)) ((-4.389e+00 -4.275e+01 -1.594e+01) (-6.830e-02 2.321e-03 5.830e-01) (0.000e+00 0.000e+00 0.000e+00))
264       	((1.470e+01 -2.441e+01 4.020e+01) (1.060e+00 7.514e-02 1.741e-01) (0.000e+00 0.000e+00 0.000e+00)) ((-4.666e+00 -4.307e+01 -1.523e+01) (-6.680e-02 6.843e-03 5.867e-01) (0.000e+00 0.000e+00 0.000e+00))
265       	((1.464e+01 -2.459e+01 4.033e+01) (1.056e+00 7.838e-02 1.717e-01) (0.000e+00 0.000e+00 0.000e+00)) ((-4.733e+00 -4.326e+01 -1.517e+01) (-6.609e-02 9.884e-03 5.889e-01) (0.000e+00 0.000e+00 0.000e+00))
266       	((1.457e+01 -2.521e+01 4.034e+01) (1.052e+00 7.830e-02 1.700e-01) (0.000e+00 0.000e+00 0.000e+00)) ((-4.620e+00 -4.341e+01 -1.565e+01) (-6.558e-02 1.177e-02 5.886e-01) (0.000e+00 0.000e+00 0.000e+00))
267       	((1.458e+01 -2.569e+01 4.026e+01) (1.048e+00 7.505e-02 1.680e-01) (0.000e+00 0.000e+00 0.000e+00)) ((-4.487e+00 -4.347e+01 -1.606e+01) (-6.468e-02 1.305e-02 5.862e-01) (0.000e+00 0.000e+00 0.000e+00))
268       	((1.470e+01 -2.575e+01 4.028e+01) (1.044e+00 6.942e-02 1.652e-01) (0.000e+00 0.000e+00 0.000e+00)) ((-4.504e+00 -4.358e+01 -1.599e+01) (-6.311e-02 1.451e-02 5.819e-01) (0.000e+00 0.000e+00 0.000e+00))
269       	((1.485e+01 -2.519e+01 4.044e+01) (1.038e+00 6.358e-02 1.622e-01) (0.000e+00 0.000e+00 0.000e+00)) ((-4.779e+00 -4.381e+01 -1.515e+01) (-6.134e-02 1.629e-02 5.762e-01) (0.000e+00 0.000e+00 0.000e+00))
270       	((1.491e+01 -2.455e+01 4.069e+01) (1.029e+00 6.152e-02 1.604e-01) (0.000e+00 0.000e+00 0.000e+00)) ((-5.140e+00 -4.407e+01 -1.419e+01) (-6.051e-02 1.739e-02 5.708e-01) (0.000e+00 0.000e+00 0.000e+00))
271       	((1.487e+01 -2.452e+01 4.076e+01) (1.016e+00 6.302e-02 1.617e-01) (0.000e+00 0.000e+00 0.000e+00)) ((-5.236e+00 -4.412e+01 -1.401e+01) (-6.144e-02 1.656e-02 5.662e-01) (0.000e+00 0.000e+00 0.000e+00))
272       	((1.476e+01 -2.488e+01 4.067e+01) (1.004e+00 6.419e-02 1.653e-01) (0.000e+00 0.000e+00 0.000e+00)) ((-5.108e+00 -4.401e+01 -1.436e+01) (-6.350e-02 1.444e-02 5.619e-01) (0.000e+00 0.000e+00 0.000e+00))
273       	((1.467e+01 -2.543e+01 4.037e+01) (9.953e-01 6.266e-02 1.691e-01) (0.000e+00 0.000e+00 0.000e+00)) ((-4.766e+00 -4.368e+01 -1.508e+01) (-6.549e-02 1.227e-02 5.570e-01) (0.000e+00 0.000e+00 0.000e+00))
274       	((1.469e+01 -2.550e+01 4.013e+01) (9.887e-01 5.886e-02 1.719e-01) (0.000e+00 0.000e+00 0.000e+00)) ((-4.546e+00 -4.337e+01 -1.530e+01) (-6.676e-02 1.072e-02 5.514e-01) (0.000e+00 0.000e+00 0.000e+00))
275       	((1.479e+01 -2.502e+01 3.996e+01) (9.834e-01 5.565e-02 1.732e-01) (0.000e+00 0.000e+00 0.000e+00)) ((-4.486e+00 -4.306e+01 -1.491e+01) (-6.729e-02 1.009e-02 5.460e-01) (0.000e+00 0.000e+00 0.000e+00))
276       	((1.485e+01 -2.390e+01 3.995e+01) (9.777e-01 5.718e-02 1.741e-01) (0.000e+00 0.000e+00 0.000e+00)) ((-4.702e+00 -4.292e+01 -1.376e+01) (-6.780e-02 9.835e-03 5.427e-01) (0.000e+00 0.000e+00 0.000e+00))
277       	((1.483e+01 -2.321e+01 4.000e+01) (9.711e-01 6.372e-02 1.763e-01) (0.000e+00 0.000e+00 0.000e+00)) ((-4.846e+00 -4.287e+01 -1.309e+01) (-6.910e-02 8.582e-03 5.420e-01) (0.000e+00 0.000e+00 0.000e+00))
278       	((1.475e+01 -2.312e+01 3.992e+01) (9.648e-01 7.120e-02 1.801e-01) (0.000e+00 0.000e+00 0.000e+00)) ((-4.757e+00 -4.273e+01 -1.317e+01) (-7.094e-02 5.749e-03 5.420e-01) (0.000e+00 0.000e+00 0.000e+00))
279       	((1.472e+01 -2.363e+01 3.970e+01) (9.617e-01 7.611e-02 1.840e-01) (0.000e+00 0.000e+00 0.000e+00)) ((-4.405e+00 -4.254e+01 -1.396e+01) (-7.243e-02 2.481e-03 5.420e-01) (0.000e+00 0.000e+00 0.000e+00))
280       	((1.476e+01 -2.409e+01 3.945e+01) (9.622e-01 7.751e-02 1.858e-01) (0.000e+00 0.000e+00 0.000e+00)) ((-4.045e+00 -4.232e+01 -1.465e+01) (-7.272e-02 2.555e-04 5.422e-01) (0.000e+00 0.000e+00 0.000e+00))
281       	((1.488e+01 -2.404e+01 3.936e+01) (9.658e-01 7.724e-02 1.853e-01) (0.000e+00 0.000e+00 0.000e+00)) ((-3.935e+00 -4.224e+01 -1.460e+01) (-7.196e-02 -3.320e-04 5.434e-01) (0.000e+00 0.000e+00 0.000e+00))
282       	((1.507e+01 -2.351e+01 3.947e+01) (9.709e-01 7.734e-02 1.833e-01) (0.000e+00 0.000e+00 0.000e+00)) ((-4.085e+00 -4.234e+01 -1.384e+01) (-7.072e-02 2.553e-04 5.461e-01) (0.000e+00 0.000e+00 0.000e+00))
283       	((1.519e+01 -2.277e+01 3.981e+01) (9.754e-01 8.107e-02 1.814e-01) (0.000e+00 0.000e+00 0.000e+00)) ((-4.446e+00 -4.264e+01 -1.269e+01) (-6.997e-02 8.640e-04 5.510e-01) (0.000e+00 0.000e+00 0.000e+00))
284       	((1.525e+01 -2.264e+01 4.008e+01) (9.784e-01 8.642e-02 1.810e-01) (0.000e+00 0.000e+00 0.000e+00)) ((-4.653e+00 -4.285e+01 -1.220e+01) (-7.013e-02 4.814e-04 5.562e-01) (0.000e+00 0.000e+00 0.000e+00))
285       	((1.531e+01 -2.309e+01 4.023e+01) (9.811e-01 8.950e-02 1.811e-01) (0.000e+00 0.000e+00 0.000e+00)) ((-4.669e+00 -4.297e+01 -1.234e+01) (-7.047e-02 -2.359e-04 5.596e-01) (0.000e+00 0.000e+00 0.000e+00))
286       	((1.545e+01 -2.379e+01 4.017e+01) (9.840e-01 8.914e-02 1.792e-01) (0.000e+00 0.000e+00 0.000e+00)) ((-4.509e+00 -4.286e+01 -1.284e+01) (-6.970e-02 4.599e-04 5.611e-01) (0.000e+00 0.000e+00 0.000e+00))
287       	((1.565e+01 -2.409e+01 4.005e+01) (9.867e-01 8.669e-02 1.745e-01) (0.000e+00 0.000e+00 0.000e+00)) ((-4.451e+00 -4.272e+01 -1.286e+01) (-6.750e-02 3.057e-03 5.610e-01) (0.000e+00 0.000e+00 0.000e+00))
288       	((1.586e+01 -2.393e+01 3.996e+01) (9.890e-01 8.329e-02 1.679e-01) (0.000e+00 0.000e+00 0.000e+00)) ((-4.550e+00 -4.262e+01 -1.232e+01) (-6.439e-02 7.168e-03 5.603e-01) (0.000e+00 0.000e+00 0.000e+00))
289       	((1.592e+01 -2.347e+01 3.994e+01) (9.896e-01 8.073e-02 1.606e-01) (0.000e+00 0.000e+00 0.000e+00)) ((-4.809e+00 -4.260e+01 -1.139e+01) (-6.104e-02 1.192e-02 5.591e-01) (0.000e+00 0.000e+00 0.000e+00))
290       	((1.582e+01 -2.339e+01 3.992e+01) (9.873e-01 8.099e-02 1.554e-01) (0.000e+00 0.000e+00 0.000e+00)) ((-4.972e+00 -4.258e+01 -1.094e+01) (-5.890e-02 1.526e-02 5.583e-01) (0.000e+00 0.000e+00 0.000e+00))
291       	((1.560e+01 -2.379e+01 3.976e+01) (9.836e-01 8.083e-02 1.537e-01) (0.000e+00 0.000e+00 0.000e+00)) ((-4.941e+00 -4.251e+01 -1.112e+01) (-5.845e-02 1.604e-02 5.567e-01) (0.000e+00 0.000e+00 0.000e+00))
292       	((1.535e+01 -2.449e+01 3.939e+01) (9.812e-01 7.846e-02 1.543e-01) (0.000e+00 0.000e+00 0.000e+00)) ((-4.695e+00 -4.227e+01 -1.177e+01) (-5.899e-02 1.522e-02 5.544e-01) (0.000e+00 0.000e+00 0.000e+00))
293       	((1.521e+01 -2.497e+01 3.895e+01) (9.811e-01 7.446e-02 1.554e-01) (0.000e+00 0.000e+00 0.000e+00)) ((-4.406e+00 -4.201e+01 -1.228e+01) (-5.969e-02 1.403e-02 5.522e-01) (0.000e+00 0.000e+00 0.000e+00))
294       	((1.516e+01 -2.496e+01 3.860e+01) (9.828e-01 6.997e-02 1.569e-01) (0.000e+00 0.000e+00 0.000e+00)) ((-4.226e+00 -4.182e+01 -1.231e+01) (-6.048e-02 1.271e-02 5.506e-01) (0.000e+00 0.000e+00 0.000e+00))
295       	((1.511e+01 -2.437e+01 3.831e+01) (9.854e-01 6.614e-02 1.588e-01) (0.000e+00 0.000e+00 0.000e+00)) ((-4.199e+00 -4.167e+01 -1.174e+01) (-6.137e-02 1.119e-02 5.497e-01) (0.000e+00 0.000e+00 0.000e+00))
296       	((1.501e+01 -2.360e+01 3.819e+01) (9.859e-01 6.433e-02 1.602e-01) (0.000e+00 0.000e+00 0.000e+00)) ((-4.284e+00 -4.164e+01 -1.097e+01) (-6.197e-02 1.005e-02 5.490e-01) (0.000e+00 0.000e+00 0.000e+00))
297       	((1.487e+01 -2.329e+01 3.812e+01) (9.842e-01 6.569e-02 1.620e-01) (0.000e+00 0.000e+00 0.000e+00)) ((-4.251e+00 -4.161e+01 -1.076e+01) (-6.281e-02 8.984e-03 5.492e-01) (0.000e+00 0.000e+00 0.000e+00))
298       	((1.465e+01 -2.340e+01 3.799e+01) (9.816e-01 6.762e-02 1.644e-01) (0.000e+00 0.000e+00 0.000e+00)) ((-4.051e+00 -4.149e+01 -1.108e+01) (-6.383e-02 7.521e-03 5.492e-01) (0.000e+00 0.000e+00 0.000e+00))
299       	((1.441e+01 -2.383e+01 3.769e+01) (9.803e-01 6.906e-02 1.664e-01) (0.000e+00 0.000e+00 0.000e+00)) ((-3.662e+00 -4.119e+01 -1.190e+01) (-6.466e-02 5.975e-03 5.495e-01) (0.000e+00 0.000e+00 0.000e+00))
300       	((1.421e+01 -2.403e+01 3.746e+01) (9.811e-01 6.903e-02 1.676e-01) (0.000e+00 0.000e+00 0.000e+00)) ((-3.384e+00 -4.094e+01 -1.243e+01) (-6.503e-02 4.817e-03 5.500e-01) (0.000e+00 0.000e+00 0.000e+00))
301       	((1.411e+01 -2.382e+01 3.735e+01) (9.831e-01 6.814e-02 1.675e-01) (0.000e+00 0.000e+00 0.000e+00)) ((-3.301e+00 -4.080e+01 -1.245e+01) (-6.474e-02 4.748e-03 5.505e-01) (0.000e+00 0.000e+00 0.000e+00))
302       	((1.408e+01 -2.307e+01 3.736e+01) (9.850e-01 6.712e-02 1.649e-01) (0.000e+00 0.000e+00 0.000e+00)) ((-3.439e+00 -4.076e+01 -1.180e+01) (-6.325e-02 6.035e-03 5.508e-01) (0.000e+00 0.000e+00 0.000e+00))
303       	((1.402e+01 -2.221e+01 3.756e+01) (9.853e-01 6.899e-02 1.608e-01) (0.000e+00 0.000e+00 0.000e+00)) ((-3.734e+00 -4.095e+01 -1.093e+01) (-6.116e-02 8.554e-03 5.522e-01) (0.000e+00 0.000e+00 0.000e+00))
304       	((1.393e+01 -2.201e+01 3.773e+01) (9.848e-01 7.345e-02 1.584e-01) (0.000e+00 0.000e+00 0.000e+00)) ((-3.852e+00 -4.110e+01 -1.081e+01) (-6.001e-02 9.964e-03 5.550e-01) (0.000e+00 0.000e+00 0.000e+00))
305       	((1.381e+01 -2.245e+01 3.784e+01) (9.851e-01 7.848e-02 1.592e-01) (0.000e+00 0.000e+00 0.000e+00)) ((-3.760e+00 -4.125e+01 -1.146e+01) (-6.038e-02 9.108e-03 5.583e-01) (0.000e+00 0.000e+00 0.000e+00))
306       	((1.374e+01 -2.344e+01 3.775e+01) (9.880e-01 8.119e-02 1.613e-01) (0.000e+00 0.000e+00 0.000e+00)) ((-3.404e+00 -4.124e+01 -1.285e+01) (-6.125e-02 6.883e-03 5.610e-01) (0.000e+00 0.000e+00 0.000e+00))
307       	((1.371e+01 -2.397e+01 3.757e+01) (9.926e-01 8.140e-02 1.627e-01) (0.000e+00 0.000e+00 0.000e+00)) ((-3.159e+00 -4.109e+01 -1.370e+01) (-6.167e-02 4.578e-03 5.626e-01) (0.000e+00 0.000e+00 0.000e+00))
308       	((1.376e+01 -2.381e+01 3.744e+01) (9.982e-01 8.067e-02 1.620e-01) (0.000e+00 0.000e+00 0.000e+00)) ((-3.152e+00 -4.095e+01 -1.369e+01) (-6.103e-02 3.358e-03 5.641e-01) (0.000e+00 0.000e+00 0.000e+00))
309       	((1.384e+01 -2.294e+01 3.736e+01) (1.004e+00 8.113e-02 1.591e-01) (0.000e+00 0.000e+00 0.000e+00)) ((-3.391e+00 -4.080e+01 -1.279e+01) (-5.940e-02 3.809e-03 5.670e-01) (0.000e+00 0.000e+00 0.000e+00))
310       	((1.378e+01 -2.191e+01 3.739e+01) (1.011e+00 8.406e-02 1.563e-01) (0.000e+00 0.000e+00 0.000e+00)) ((-3.754e+00 -4.073e+01 -1.163e+01) (-5.804e-02 4.676e-03 5.724e-01) (0.000e+00 0.000e+00 0.000e+00))
311       	((1.363e+01 -2.169e+01 3.736e+01) (1.019e+00 8.863e-02 1.562e-01) (0.000e+00 0.000e+00 0.000e+00)) ((-3.860e+00 -4.061e+01 -1.141e+01) (-5.801e-02 4.588e-03 5.800e-01) (0.000e+00 0.000e+00 0.000e+00))
312       	((1.343e+01 -2.213e+01 3.717e+01) (1.028e+00 9.314e-02 1.591e-01) (0.000e+00 0.000e+00 0.000e+00)) ((-3.723e+00 -4.033e+01 -1.203e+01) (-5.951e-02 3.505e-03 5.883e-01) (0.000e+00 0.000e+00 0.000e+00))
313       	((1.331e+01 -2.298e+01 3.679e+01) (1.037e+00 9.524e-02 1.640e-01) (0.000e+00 0.000e+00 0.000e+00)) ((-3.356e+00 -3.987e+01 -1.326e+01) (-6.191e-02 1.847e-03 5.953e-01) (0.000e+00 0.000e+00 0.000e+00))
314       	((1.333e+01 -2.331e+01 3.652e+01) (1.045e+00 9.476e-02 1.689e-01) (0.000e+00 0.000e+00 0.000e+00)) ((-3.169e+00 -3.957e+01 -1.385e+01) (-6.432e-02 4.200e-04 6.003e-01) (0.000e+00 0.000e+00 0.000e+00))
315       	((1.344e+01 -2.311e+01 3.636e+01) (1.052e+00 9.332e-02 1.725e-01) (0.000e+00 0.000e+00 0.000e+00)) ((-3.170e+00 -3.938e+01 -1.381e+01) (-6.617e-02 1.748e-05 6.033e-01) (0.000e+00 0.000e+00 0.000e+00))
316       	((1.348e+01 -2.240e+01 3.622e+01) (1.057e+00 9.312e-02 1.749e-01) (0.000e+00 0.000e+00 0.000e+00)) ((-3.365e+00 -3.920e+01 -1.313e+01) (-6.771e-02 2.866e-04 6.051e-01) (0.000e+00 0.000e+00 0.000e+00))
317       	((1.349e+01 -2.200e+01 3.617e+01) (1.060e+00 9.401e-02 1.782e-01) (0.000e+00 0.000e+00 0.000e+00)) ((-3.510e+00 -3.915e+01 -1.273e+01) (-6.984e-02 -5.052e-04 6.061e-01) (0.000e+00 0.000e+00 0.000e+00))
318       	((1.352e+01 -2.219e+01 3.606e+01) (1.062e+00 9.482e-02 1.835e-01) (0.000e+00 0.000e+00 0.000e+00)) ((-3.454e+00 -3.907e+01 -1.296e+01) (-7.282e-02 -3.138e-03 6.066e-01) (0.000e+00 0.000e+00 0.000e+00))
319       	((1.361e+01 -2.287e+01 3.582e+01) (1.065e+00 9.358e-02 1.900e-01) (0.000e+00 0.000e+00 0.000e+00)) ((-3.200e+00 -3.887e+01 -1.374e+01) (-7.609e-02 -7.030e-03 6.059e-01) (0.000e+00 0.000e+00 0.000e+00))
320       	((1.385e+01 -2.344e+01 3.564e+01) (1.068e+00 9.037e-02 1.959e-01) (0.000e+00 0.000e+00 0.000e+00)) ((-2.971e+00 -3.872e+01 -1.436e+01) (-7.883e-02 -1.093e-02 6.040e-01) (0.000e+00 0.000e+00 0.000e+00))
321       	((1.415e+01 -2.354e+01 3.564e+01) (1.068e+00 8.631e-02 1.993e-01) (0.000e+00 0.000e+00 0.000e+00)) ((-2.930e+00 -3.875e+01 -1.439e+01) (-8.020e-02 -1.326e-02 6.003e-01) (0.000e+00 0.000e+00 0.000e+00))
322       	((1.437e+01 -2.323e+01 3.583e+01) (1.063e+00 8.364e-02 1.999e-01) (0.000e+00 0.000e+00 0.000e+00)) ((-3.094e+00 -3.897e+01 -1.389e+01) (-8.022e-02 -1.379e-02 5.954e-01) (0.000e+00 0.000e+00 0.000e+00))
323       	((1.445e+01 -2.296e+01 3.612e+01) (1.055e+00 8.344e-02 1.991e-01) (0.000e+00 0.000e+00 0.000e+00)) ((-3.309e+00 -3.923e+01 -1.343e+01) (-7.971e-02 -1.339e-02 5.903e-01) (0.000e+00 0.000e+00 0.000e+00))
324       	((1.448e+01 -2.307e+01 3.635e+01) (1.045e+00 8.381e-02 1.990e-01) (0.000e+00 0.000e+00 0.000e+00)) ((-3.396e+00 -3.938e+01 -1.344e+01) (-7.943e-02 -1.276e-02 5.854e-01) (0.000e+00 0.000e+00 0.000e+00))
325       	((1.451e+01 -2.345e+01 3.650e+01) (1.036e+00 8.263e-02 1.989e-01) (0.000e+00 0.000e+00 0.000e+00)) ((-3.372e+00 -3.940e+01 -1.379e+01) (-7.898e-02 -1.150e-02 5.805e-01) (0.000e+00 0.000e+00 0.000e+00))
326       	((1.458e+01 -2.374e+01 3.659e+01) (1.028e+00 7.956e-02 1.973e-01) (0.000e+00 0.000e+00 0.000e+00)) ((-3.327e+00 -3.933e+01 -1.410e+01) (-7.770e-02 -8.999e-03 5.758e-01) (0.000e+00 0.000e+00 0.000e+00))
327       	((1.461e+01 -2.373e+01 3.666e+01) (1.022e+00 7.600e-02 1.939e-01) (0.000e+00 0.000e+00 0.000e+00)) ((-3.346e+00 -3.925e+01 -1.411e+01) (-7.556e-02 -5.459e-03 5.721e-01) (0.000e+00 0.000e+00 0.000e+00))
328       	((1.454e+01 -2.340e+01 3.673e+01) (1.017e+00 7.456e-02 1.899e-01) (0.000e+00 0.000e+00 0.000e+00)) ((-3.475e+00 -3.922e+01 -1.380e+01) (-7.332e-02 -1.932e-03 5.705e-01) (0.000e+00 0.000e+00 0.000e+00))
329       	((1.439e+01 -2.311e+01 3.679e+01) (1.012e+00 7.545e-02 1.868e-01) (0.000e+00 0.000e+00 0.000e+00)) ((-3.598e+00 -3.924e+01 -1.358e+01) (-7.174e-02 5.311e-04 5.704e-01) (0.000e+00 0.000e+00 0.000e+00))
330       	((1.428e+01 -2.316e+01 3.682e+01) (1.010e+00 7.632e-02 1.847e-01) (0.000e+00 0.000e+00 0.000e+00)) ((-3.631e+00 -3.927e+01 -1.376e+01) (-7.063e-02 1.977e-03 5.704e-01) (0.000e+00 0.000e+00 0.000e+00))
331       	((1.429e+01 -2.349e+01 3.689e+01) (1.009e+00 7.582e-02 1.824e-01) (0.000e+00 0.000e+00 0.000e+00)) ((-3.607e+00 -3.931e+01 -1.422e+01) (-6.929e-02 3.067e-03 5.697e-01) (0.000e+00 0.000e+00 0.000e+00))
332       	((1.442e+01 -2.380e+01 3.700e+01) (1.011e+00 7.464e-02 1.794e-01) (0.000e+00 0.000e+00 0.000e+00)) ((-3.602e+00 -3.935e+01 -1.460e+01) (-6.747e-02 4.771e-03 5.687e-01) (0.000e+00 0.000e+00 0.000e+00))
333       	((1.456e+01 -2.391e+01 3.714e+01) (1.013e+00 7.429e-02 1.758e-01) (0.000e+00 0.000e+00 0.000e+00)) ((-3.677e+00 -3.941e+01 -1.468e+01) (-6.568e-02 7.024e-03 5.683e-01) (0.000e+00 0.000e+00 0.000e+00))
334       	((1.466e+01 -2.395e+01 3.731e+01) (1.015e+00 7.552e-02 1.725e-01) (0.000e+00 0.000e+00 0.000e+00)) ((-3.805e+00 -3.951e+01 -1.459e+01) (-6.440e-02 9.350e-03 5.688e-01) (0.000e+00 0.000e+00 0.000e+00))
335       	((1.471e+01 -2.413e+01 3.744e+01) (1.017e+00 7.682e-02 1.690e-01) (0.000e+00 0.000e+00 0.000e+00)) ((-3.887e+00 -3.961e+01 -1.462e+01) (-6.317e-02 1.203e-02 5.698e-01) (0.000e+00 0.000e+00 0.000e+00))
336       	((1.475e+01 -2.461e+01 3.754e+01) (1.020e+00 7.658e-02 1.648e-01) (0.000e+00 0.000e+00 0.000e+00)) ((-3.860e+00 -3.970e+01 -1.501e+01) (-6.158e-02 1.551e-02 5.704e-01) (0.000e+00 0.000e+00 0.000e+00))
337       	((1.485e+01 -2.517e+01 3.757e+01) (1.023e+00 7.444e-02 1.593e-01) (0.000e+00 0.000e+00 0.000e+00)) ((-3.739e+00 -3.974e+01 -1.552e+01) (-5.912e-02 2.024e-02 5.704e-01) (0.000e+00 0.000e+00 0.000e+00))
338       	((1.497e+01 -2.536e+01 3.761e+01) (1.026e+00 7.155e-02 1.527e-01) (0.000e+00 0.000e+00 0.000e+00)) ((-3.692e+00 -3.980e+01 -1.566e+01) (-5.593e-02 2.588e-02 5.702e-01) (0.000e+00 0.000e+00 0.000e+00))
339       	((1.504e+01 -2.523e+01 3.767e+01) (1.029e+00 6.984e-02 1.456e-01) (0.000e+00 0.000e+00 0.000e+00)) ((-3.747e+00 -3.991e+01 -1.545e+01) (-5.253e-02 3.186e-02 5.706e-01) (0.000e+00 0.000e+00 0.000e+00))
340       	((1.496e+01 -2.490e+01 3.773e+01) (1.030e+00 7.093e-02 1.393e-01) (0.000e+00 0.000e+00 0.000e+00)) ((-3.877e+00 -4.007e+01 -1.502e+01) (-4.983e-02 3.688e-02 5.720e-01) (0.000e+00 0.000e+00 0.000e+00))
341       	((1.478e+01 -2.487e+01 3.772e+01) (1.028e+00 7.357e-02 1.349e-01) (0.000e+00 0.000e+00 0.000e+00)) ((-3.897e+00 -4.017e+01 -1.502e+01) (-4.830e-02 3.983e-02 5.735e-01) (0.000e+00 0.000e+00 0.000e+00))
342       	((1.457e+01 -2.520e+01 3.764e+01) (1.025e+00 7.443e-02 1.330e-01) (0.000e+00 0.000e+00 0.000e+00)) ((-3.794e+00 -4.022e+01 -1.552e+01) (-4.780e-02 4.029e-02 5.738e-01) (0.000e+00 0.000e+00 0.000e+00))
343       	((1.444e+01 -2.577e+01 3.751e+01) (1.024e+00 7.210e-02 1.315e-01) (0.000e+00 0.000e+00 0.000e+00)) ((-3.572e+00 -4.015e+01 -1.642e+01) (-4.715e-02 3.917e-02 5.726e-01) (0.000e+00 0.000e+00 0.000e+00))
344       	((1.441e+01 -2.596e+01 3.747e+01) (1.022e+00 6.738e-02 1.296e-01) (0.000e+00 0.000e+00 0.000e+00)) ((-3.496e+00 -4.012e+01 -1.690e+01) (-4.583e-02 3.746e-02 5.700e-01) (0.000e+00 0.000e+00 0.000e+00))
345       	((1.439e+01 -2.565e+01 3.747e+01) (1.021e+00 6.352e-02 1.279e-01) (0.000e+00 0.000e+00 0.000e+00)) ((-3.605e+00 -4.006e+01 -1.680e+01) (-4.455e-02 3.580e-02 5.675e-01) (0.000e+00 0.000e+00 0.000e+00))
346       	((1.426e+01 -2.496e+01 3.763e+01) (1.020e+00 6.457e-02 1.280e-01) (0.000e+00 0.000e+00 0.000e+00)) ((-3.922e+00 -4.017e+01 -1.617e+01) (-4.455e-02 3.377e-02 5.674e-01) (0.000e+00 0.000e+00 0.000e+00))
347       	((1.410e+01 -2.492e+01 3.772e+01) (1.018e+00 6.864e-02 1.307e-01) (0.000e+00 0.000e+00 0.000e+00)) ((-4.007e+00 -4.023e+01 -1.624e+01) (-4.603e-02 3.094e-02 5.685e-01) (0.000e+00 0.000e+00 0.000e+00))
348       	((1.392e+01 -2.540e+01 3.768e+01) (1.016e+00 7.198e-02 1.350e-01) (0.000e+00 0.000e+00 0.000e+00)) ((-3.846e+00 -4.021e+01 -1.698e+01) (-4.816e-02 2.832e-02 5.688e-01) (0.000e+00 0.000e+00 0.000e+00))
349       	((1.384e+01 -2.628e+01 3.746e+01) (1.016e+00 7.234e-02 1.384e-01) (0.000e+00 0.000e+00 0.000e+00)) ((-3.421e+00 -4.004e+01 -1.831e+01) (-4.961e-02 2.755e-02 5.677e-01) (0.000e+00 0.000e+00 0.000e+00))
350       	((1.387e+01 -2.656e+01 3.727e+01) (1.015e+00 6.955e-02 1.385e-01) (0.000e+00 0.000e+00 0.000e+00)) ((-3.163e+00 -3.985e+01 -1.890e+01) (-4.916e-02 2.996e-02 5.648e-01) (0.000e+00 0.000e+00 0.000e+00))
351       	((1.396e+01 -2.613e+01 3.720e+01) (1.015e+00 6.604e-02 1.347e-01) (0.000e+00 0.000e+00 0.000e+00)) ((-3.171e+00 -3.972e+01 -1.860e+01) (-4.679e-02 3.604e-02 5.614e-01) (0.000e+00 0.000e+00 0.000e+00))
352       	((1.402e+01 -2.494e+01 3.736e+01) (1.014e+00 6.503e-02 1.285e-01) (0.000e+00 0.000e+00 0.000e+00)) ((-3.530e+00 -3.984e+01 -1.723e+01) (-4.356e-02 4.477e-02 5.597e-01) (0.000e+00 0.000e+00 0.000e+00))
353       	((1.401e+01 -2.412e+01 3.757e+01) (1.011e+00 6.741e-02 1.241e-01) (0.000e+00 0.000e+00 0.000e+00)) ((-3.860e+00 -3.999e+01 -1.616e+01) (-4.153e-02 5.252e-02 5.602e-01) (0.000e+00 0.000e+00 0.000e+00))
354       	((1.398e+01 -2.423e+01 3.766e+01) (1.008e+00 7.026e-02 1.229e-01) (0.000e+00 0.000e+00 0.000e+00)) ((-3.890e+00 -4.004e+01 -1.612e+01) (-4.117e-02 5.756e-02 5.608e-01) (0.000e+00 0.000e+00 0.000e+00))
355       	((1.401e+01 -2.519e+01 3.768e+01) (1.006e+00 7.116e-02 1.234e-01) (0.000e+00 0.000e+00 0.000e+00)) ((-3.632e+00 -4.006e+01 -1.707e+01) (-4.150e-02 6.074e-02 5.606e-01) (0.000e+00 0.000e+00 0.000e+00))
356       	((1.419e+01 -2.620e+01 3.760e+01) (1.004e+00 6.968e-02 1.236e-01) (0.000e+00 0.000e+00 0.000e+00)) ((-3.317e+00 -3.998e+01 -1.811e+01) (-4.167e-02 6.318e-02 5.594e-01) (0.000e+00 0.000e+00 0.000e+00))
357       	((1.449e+01 -2.649e+01 3.762e+01) (1.001e+00 6.739e-02 1.228e-01) (0.000e+00 0.000e+00 0.000e+00)) ((-3.264e+00 -3.998e+01 -1.830e+01) (-4.141e-02 6.565e-02 5.572e-01) (0.000e+00 0.000e+00 0.000e+00))
358       	((1.482e+01 -2.618e+01 3.768e+01) (9.980e-01 6.622e-02 1.212e-01) (0.000e+00 0.000e+00 0.000e+00)) ((-3.437e+00 -3.996e+01 -1.773e+01) (-4.110e-02 6.842e-02 5.551e-01) (0.000e+00 0.000e+00 0.000e+00))
359       	((1.505e+01 -2.549e+01 3.776e+01) (9.922e-01 6.733e-02 1.206e-01) (0.000e+00 0.000e+00 0.000e+00)) ((-3.787e+00 -3.993e+01 -1.665e+01) (-4.140e-02 7.011e-02 5.530e-01) (0.000e+00 0.000e+00 0.000e+00))
360       	((1.518e+01 -2.537e+01 3.775e+01) (9.852e-01 6.916e-02 1.220e-01) (0.000e+00 0.000e+00 0.000e+00)) ((-3.933e+00 -3.981e+01 -1.628e+01) (-4.257e-02 6.979e-02 5.500e-01) (0.000e+00 0.000e+00 0.000e+00))
