# Forces  
# CofR    : (0.000e+00 0.000e+00 0.000e+00)
# Time    forces(pressure viscous porous) moment(pressure viscous porous)
241       	((3.859e+01 -6.215e+00 -9.064e+01) (7.546e-01 -1.310e-02 1.989e-01) (0.000e+00 0.000e+00 0.000e+00)) ((2.739e+01 1.893e+02 -1.656e+00) (-4.186e-02 7.773e-02 2.404e-01) (0.000e+00 0.000e+00 0.000e+00))
242       	((3.864e+01 -5.986e+00 -9.109e+01) (7.592e-01 -1.269e-02 1.967e-01) (0.000e+00 0.000e+00 0.000e+00)) ((2.734e+01 1.901e+02 -1.274e+00) (-4.116e-02 8.254e-02 2.427e-01) (0.000e+00 0.000e+00 0.000e+00))
243       	((3.870e+01 -5.789e+00 -9.155e+01) (7.637e-01 -1.258e-02 1.942e-01) (0.000e+00 0.000e+00 0.000e+00)) ((2.732e+01 1.909e+02 -9.404e-01) (-4.015e-02 8.797e-02 2.445e-01) (0.000e+00 0.000e+00 0.000e+00))
244       	((3.876e+01 -5.641e+00 -9.200e+01) (7.678e-01 -1.277e-02 1.917e-01) (0.000e+00 0.000e+00 0.000e+00)) ((2.734e+01 1.917e+02 -6.905e-01) (-3.899e-02 9.332e-02 2.456e-01) (0.000e+00 0.000e+00 0.000e+00))
245       	((3.881e+01 -5.576e+00 -9.242e+01) (7.714e-01 -1.329e-02 1.895e-01) (0.000e+00 0.000e+00 0.000e+00)) ((2.742e+01 1.925e+02 -5.754e-01) (-3.775e-02 9.837e-02 2.461e-01) (0.000e+00 0.000e+00 0.000e+00))
246       	((3.887e+01 -5.615e+00 -9.276e+01) (7.749e-01 -1.407e-02 1.876e-01) (0.000e+00 0.000e+00 0.000e+00)) ((2.756e+01 1.931e+02 -6.234e-01) (-3.650e-02 1.028e-01 2.461e-01) (0.000e+00 0.000e+00 0.000e+00))
247       	((3.895e+01 -5.765e+00 -9.303e+01) (7.782e-01 -1.503e-02 1.861e-01) (0.000e+00 0.000e+00 0.000e+00)) ((2.777e+01 1.937e+02 -8.412e-01) (-3.533e-02 1.065e-01 2.457e-01) (0.000e+00 0.000e+00 0.000e+00))
248       	((3.904e+01 -6.028e+00 -9.319e+01) (7.812e-01 -1.611e-02 1.853e-01) (0.000e+00 0.000e+00 0.000e+00)) ((2.802e+01 1.941e+02 -1.227e+00) (-3.433e-02 1.092e-01 2.452e-01) (0.000e+00 0.000e+00 0.000e+00))
249       	((3.913e+01 -6.322e+00 -9.323e+01) (7.839e-01 -1.719e-02 1.850e-01) (0.000e+00 0.000e+00 0.000e+00)) ((2.827e+01 1.943e+02 -1.643e+00) (-3.358e-02 1.105e-01 2.445e-01) (0.000e+00 0.000e+00 0.000e+00))
250       	((3.921e+01 -6.636e+00 -9.312e+01) (7.859e-01 -1.815e-02 1.854e-01) (0.000e+00 0.000e+00 0.000e+00)) ((2.850e+01 1.942e+02 -2.078e+00) (-3.311e-02 1.104e-01 2.439e-01) (0.000e+00 0.000e+00 0.000e+00))
251       	((3.925e+01 -6.887e+00 -9.289e+01) (7.869e-01 -1.891e-02 1.863e-01) (0.000e+00 0.000e+00 0.000e+00)) ((2.866e+01 1.939e+02 -2.403e+00) (-3.293e-02 1.092e-01 2.434e-01) (0.000e+00 0.000e+00 0.000e+00))
252       	((3.925e+01 -7.062e+00 -9.254e+01) (7.870e-01 -1.939e-02 1.873e-01) (0.000e+00 0.000e+00 0.000e+00)) ((2.875e+01 1.933e+02 -2.616e+00) (-3.301e-02 1.071e-01 2.430e-01) (0.000e+00 0.000e+00 0.000e+00))
253       	((3.920e+01 -7.182e+00 -9.212e+01) (7.862e-01 -1.960e-02 1.885e-01) (0.000e+00 0.000e+00 0.000e+00)) ((2.878e+01 1.925e+02 -2.760e+00) (-3.330e-02 1.044e-01 2.429e-01) (0.000e+00 0.000e+00 0.000e+00))
254       	((3.910e+01 -7.254e+00 -9.169e+01) (7.847e-01 -1.955e-02 1.896e-01) (0.000e+00 0.000e+00 0.000e+00)) ((2.879e+01 1.917e+02 -2.851e+00) (-3.374e-02 1.015e-01 2.429e-01) (0.000e+00 0.000e+00 0.000e+00))
255       	((3.895e+01 -7.320e+00 -9.128e+01) (7.828e-01 -1.929e-02 1.907e-01) (0.000e+00 0.000e+00 0.000e+00)) ((2.878e+01 1.909e+02 -2.964e+00) (-3.429e-02 9.872e-02 2.431e-01) (0.000e+00 0.000e+00 0.000e+00))
256       	((3.878e+01 -7.394e+00 -9.094e+01) (7.808e-01 -1.889e-02 1.916e-01) (0.000e+00 0.000e+00 0.000e+00)) ((2.878e+01 1.901e+02 -3.111e+00) (-3.489e-02 9.607e-02 2.434e-01) (0.000e+00 0.000e+00 0.000e+00))
257       	((3.862e+01 -7.504e+00 -9.068e+01) (7.788e-01 -1.839e-02 1.924e-01) (0.000e+00 0.000e+00 0.000e+00)) ((2.881e+01 1.895e+02 -3.336e+00) (-3.551e-02 9.368e-02 2.438e-01) (0.000e+00 0.000e+00 0.000e+00))
258       	((3.850e+01 -7.646e+00 -9.051e+01) (7.770e-01 -1.788e-02 1.931e-01) (0.000e+00 0.000e+00 0.000e+00)) ((2.887e+01 1.891e+02 -3.618e+00) (-3.608e-02 9.157e-02 2.442e-01) (0.000e+00 0.000e+00 0.000e+00))
259       	((3.841e+01 -7.833e+00 -9.043e+01) (7.753e-01 -1.744e-02 1.936e-01) (0.000e+00 0.000e+00 0.000e+00)) ((2.897e+01 1.889e+02 -3.978e+00) (-3.656e-02 8.979e-02 2.444e-01) (0.000e+00 0.000e+00 0.000e+00))
260       	((3.838e+01 -8.005e+00 -9.044e+01) (7.737e-01 -1.711e-02 1.940e-01) (0.000e+00 0.000e+00 0.000e+00)) ((2.908e+01 1.889e+02 -4.298e+00) (-3.692e-02 8.823e-02 2.443e-01) (0.000e+00 0.000e+00 0.000e+00))
261       	((3.838e+01 -8.139e+00 -9.053e+01) (7.720e-01 -1.694e-02 1.943e-01) (0.000e+00 0.000e+00 0.000e+00)) ((2.917e+01 1.891e+02 -4.543e+00) (-3.716e-02 8.690e-02 2.439e-01) (0.000e+00 0.000e+00 0.000e+00))
262       	((3.841e+01 -8.259e+00 -9.067e+01) (7.703e-01 -1.695e-02 1.945e-01) (0.000e+00 0.000e+00 0.000e+00)) ((2.927e+01 1.893e+02 -4.752e+00) (-3.726e-02 8.569e-02 2.432e-01) (0.000e+00 0.000e+00 0.000e+00))
263       	((3.846e+01 -8.355e+00 -9.086e+01) (7.687e-01 -1.713e-02 1.946e-01) (0.000e+00 0.000e+00 0.000e+00)) ((2.936e+01 1.897e+02 -4.909e+00) (-3.727e-02 8.455e-02 2.421e-01) (0.000e+00 0.000e+00 0.000e+00))
264       	((3.851e+01 -8.448e+00 -9.103e+01) (7.671e-01 -1.746e-02 1.948e-01) (0.000e+00 0.000e+00 0.000e+00)) ((2.944e+01 1.900e+02 -5.052e+00) (-3.722e-02 8.343e-02 2.408e-01) (0.000e+00 0.000e+00 0.000e+00))
265       	((3.855e+01 -8.538e+00 -9.119e+01) (7.657e-01 -1.790e-02 1.951e-01) (0.000e+00 0.000e+00 0.000e+00)) ((2.952e+01 1.904e+02 -5.187e+00) (-3.712e-02 8.230e-02 2.393e-01) (0.000e+00 0.000e+00 0.000e+00))
266       	((3.859e+01 -8.616e+00 -9.135e+01) (7.644e-01 -1.842e-02 1.954e-01) (0.000e+00 0.000e+00 0.000e+00)) ((2.959e+01 1.907e+02 -5.306e+00) (-3.702e-02 8.112e-02 2.377e-01) (0.000e+00 0.000e+00 0.000e+00))
267       	((3.862e+01 -8.646e+00 -9.150e+01) (7.631e-01 -1.898e-02 1.958e-01) (0.000e+00 0.000e+00 0.000e+00)) ((2.962e+01 1.909e+02 -5.349e+00) (-3.693e-02 7.988e-02 2.360e-01) (0.000e+00 0.000e+00 0.000e+00))
268       	((3.864e+01 -8.631e+00 -9.165e+01) (7.619e-01 -1.953e-02 1.962e-01) (0.000e+00 0.000e+00 0.000e+00)) ((2.963e+01 1.912e+02 -5.329e+00) (-3.686e-02 7.860e-02 2.343e-01) (0.000e+00 0.000e+00 0.000e+00))
269       	((3.864e+01 -8.554e+00 -9.183e+01) (7.607e-01 -2.003e-02 1.966e-01) (0.000e+00 0.000e+00 0.000e+00)) ((2.961e+01 1.915e+02 -5.216e+00) (-3.682e-02 7.734e-02 2.328e-01) (0.000e+00 0.000e+00 0.000e+00))
270       	((3.865e+01 -8.435e+00 -9.202e+01) (7.595e-01 -2.042e-02 1.971e-01) (0.000e+00 0.000e+00 0.000e+00)) ((2.957e+01 1.918e+02 -5.043e+00) (-3.685e-02 7.611e-02 2.314e-01) (0.000e+00 0.000e+00 0.000e+00))
271       	((3.866e+01 -8.287e+00 -9.223e+01) (7.585e-01 -2.063e-02 1.975e-01) (0.000e+00 0.000e+00 0.000e+00)) ((2.951e+01 1.922e+02 -4.827e+00) (-3.697e-02 7.500e-02 2.304e-01) (0.000e+00 0.000e+00 0.000e+00))
272       	((3.868e+01 -8.087e+00 -9.247e+01) (7.577e-01 -2.066e-02 1.979e-01) (0.000e+00 0.000e+00 0.000e+00)) ((2.944e+01 1.926e+02 -4.529e+00) (-3.718e-02 7.399e-02 2.298e-01) (0.000e+00 0.000e+00 0.000e+00))
273       	((3.873e+01 -7.844e+00 -9.273e+01) (7.570e-01 -2.052e-02 1.983e-01) (0.000e+00 0.000e+00 0.000e+00)) ((2.934e+01 1.931e+02 -4.158e+00) (-3.746e-02 7.307e-02 2.295e-01) (0.000e+00 0.000e+00 0.000e+00))
274       	((3.879e+01 -7.574e+00 -9.301e+01) (7.564e-01 -2.027e-02 1.986e-01) (0.000e+00 0.000e+00 0.000e+00)) ((2.924e+01 1.936e+02 -3.740e+00) (-3.777e-02 7.223e-02 2.294e-01) (0.000e+00 0.000e+00 0.000e+00))
275       	((3.886e+01 -7.269e+00 -9.331e+01) (7.559e-01 -1.995e-02 1.989e-01) (0.000e+00 0.000e+00 0.000e+00)) ((2.912e+01 1.942e+02 -3.254e+00) (-3.809e-02 7.150e-02 2.295e-01) (0.000e+00 0.000e+00 0.000e+00))
276       	((3.894e+01 -6.950e+00 -9.362e+01) (7.553e-01 -1.958e-02 1.992e-01) (0.000e+00 0.000e+00 0.000e+00)) ((2.900e+01 1.948e+02 -2.738e+00) (-3.837e-02 7.089e-02 2.296e-01) (0.000e+00 0.000e+00 0.000e+00))
277       	((3.900e+01 -6.707e+00 -9.392e+01) (7.547e-01 -1.922e-02 1.992e-01) (0.000e+00 0.000e+00 0.000e+00)) ((2.891e+01 1.953e+02 -2.342e+00) (-3.858e-02 7.050e-02 2.298e-01) (0.000e+00 0.000e+00 0.000e+00))
278       	((3.907e+01 -6.492e+00 -9.419e+01) (7.542e-01 -1.886e-02 1.992e-01) (0.000e+00 0.000e+00 0.000e+00)) ((2.885e+01 1.959e+02 -1.988e+00) (-3.874e-02 7.033e-02 2.300e-01) (0.000e+00 0.000e+00 0.000e+00))
279       	((3.914e+01 -6.342e+00 -9.443e+01) (7.538e-01 -1.855e-02 1.990e-01) (0.000e+00 0.000e+00 0.000e+00)) ((2.881e+01 1.963e+02 -1.732e+00) (-3.880e-02 7.041e-02 2.302e-01) (0.000e+00 0.000e+00 0.000e+00))
280       	((3.920e+01 -6.258e+00 -9.461e+01) (7.534e-01 -1.830e-02 1.987e-01) (0.000e+00 0.000e+00 0.000e+00)) ((2.880e+01 1.967e+02 -1.583e+00) (-3.879e-02 7.069e-02 2.303e-01) (0.000e+00 0.000e+00 0.000e+00))
281       	((3.925e+01 -6.242e+00 -9.473e+01) (7.530e-01 -1.813e-02 1.984e-01) (0.000e+00 0.000e+00 0.000e+00)) ((2.881e+01 1.969e+02 -1.543e+00) (-3.870e-02 7.108e-02 2.304e-01) (0.000e+00 0.000e+00 0.000e+00))
282       	((3.929e+01 -6.270e+00 -9.479e+01) (7.527e-01 -1.800e-02 1.981e-01) (0.000e+00 0.000e+00 0.000e+00)) ((2.884e+01 1.971e+02 -1.567e+00) (-3.857e-02 7.152e-02 2.305e-01) (0.000e+00 0.000e+00 0.000e+00))
283       	((3.931e+01 -6.363e+00 -9.479e+01) (7.522e-01 -1.791e-02 1.977e-01) (0.000e+00 0.000e+00 0.000e+00)) ((2.890e+01 1.971e+02 -1.693e+00) (-3.839e-02 7.199e-02 2.306e-01) (0.000e+00 0.000e+00 0.000e+00))
284       	((3.933e+01 -6.525e+00 -9.470e+01) (7.517e-01 -1.789e-02 1.973e-01) (0.000e+00 0.000e+00 0.000e+00)) ((2.898e+01 1.970e+02 -1.931e+00) (-3.818e-02 7.247e-02 2.306e-01) (0.000e+00 0.000e+00 0.000e+00))
285       	((3.932e+01 -6.766e+00 -9.454e+01) (7.512e-01 -1.797e-02 1.968e-01) (0.000e+00 0.000e+00 0.000e+00)) ((2.910e+01 1.967e+02 -2.290e+00) (-3.791e-02 7.298e-02 2.305e-01) (0.000e+00 0.000e+00 0.000e+00))
286       	((3.931e+01 -7.055e+00 -9.430e+01) (7.508e-01 -1.816e-02 1.964e-01) (0.000e+00 0.000e+00 0.000e+00)) ((2.923e+01 1.963e+02 -2.717e+00) (-3.761e-02 7.342e-02 2.303e-01) (0.000e+00 0.000e+00 0.000e+00))
287       	((3.928e+01 -7.351e+00 -9.400e+01) (7.504e-01 -1.845e-02 1.961e-01) (0.000e+00 0.000e+00 0.000e+00)) ((2.936e+01 1.958e+02 -3.148e+00) (-3.730e-02 7.373e-02 2.301e-01) (0.000e+00 0.000e+00 0.000e+00))
288       	((3.924e+01 -7.650e+00 -9.365e+01) (7.499e-01 -1.877e-02 1.959e-01) (0.000e+00 0.000e+00 0.000e+00)) ((2.948e+01 1.951e+02 -3.583e+00) (-3.702e-02 7.383e-02 2.298e-01) (0.000e+00 0.000e+00 0.000e+00))
289       	((3.918e+01 -7.925e+00 -9.327e+01) (7.494e-01 -1.905e-02 1.958e-01) (0.000e+00 0.000e+00 0.000e+00)) ((2.958e+01 1.944e+02 -3.989e+00) (-3.683e-02 7.369e-02 2.295e-01) (0.000e+00 0.000e+00 0.000e+00))
290       	((3.913e+01 -8.154e+00 -9.287e+01) (7.488e-01 -1.925e-02 1.959e-01) (0.000e+00 0.000e+00 0.000e+00)) ((2.965e+01 1.937e+02 -4.334e+00) (-3.675e-02 7.330e-02 2.293e-01) (0.000e+00 0.000e+00 0.000e+00))
291       	((3.906e+01 -8.332e+00 -9.247e+01) (7.482e-01 -1.935e-02 1.962e-01) (0.000e+00 0.000e+00 0.000e+00)) ((2.969e+01 1.930e+02 -4.620e+00) (-3.681e-02 7.264e-02 2.291e-01) (0.000e+00 0.000e+00 0.000e+00))
292       	((3.899e+01 -8.480e+00 -9.207e+01) (7.475e-01 -1.940e-02 1.967e-01) (0.000e+00 0.000e+00 0.000e+00)) ((2.970e+01 1.922e+02 -4.882e+00) (-3.698e-02 7.169e-02 2.290e-01) (0.000e+00 0.000e+00 0.000e+00))
293       	((3.892e+01 -8.545e+00 -9.172e+01) (7.467e-01 -1.939e-02 1.974e-01) (0.000e+00 0.000e+00 0.000e+00)) ((2.968e+01 1.916e+02 -5.030e+00) (-3.726e-02 7.044e-02 2.288e-01) (0.000e+00 0.000e+00 0.000e+00))
294       	((3.885e+01 -8.545e+00 -9.143e+01) (7.458e-01 -1.934e-02 1.982e-01) (0.000e+00 0.000e+00 0.000e+00)) ((2.962e+01 1.910e+02 -5.088e+00) (-3.762e-02 6.893e-02 2.285e-01) (0.000e+00 0.000e+00 0.000e+00))
295       	((3.877e+01 -8.495e+00 -9.120e+01) (7.447e-01 -1.924e-02 1.990e-01) (0.000e+00 0.000e+00 0.000e+00)) ((2.953e+01 1.906e+02 -5.073e+00) (-3.804e-02 6.722e-02 2.283e-01) (0.000e+00 0.000e+00 0.000e+00))
296       	((3.871e+01 -8.410e+00 -9.105e+01) (7.436e-01 -1.906e-02 1.999e-01) (0.000e+00 0.000e+00 0.000e+00)) ((2.943e+01 1.903e+02 -5.002e+00) (-3.851e-02 6.542e-02 2.281e-01) (0.000e+00 0.000e+00 0.000e+00))
297       	((3.865e+01 -8.310e+00 -9.097e+01) (7.425e-01 -1.878e-02 2.007e-01) (0.000e+00 0.000e+00 0.000e+00)) ((2.933e+01 1.901e+02 -4.904e+00) (-3.902e-02 6.366e-02 2.280e-01) (0.000e+00 0.000e+00 0.000e+00))
298       	((3.861e+01 -8.207e+00 -9.095e+01) (7.415e-01 -1.842e-02 2.013e-01) (0.000e+00 0.000e+00 0.000e+00)) ((2.925e+01 1.900e+02 -4.797e+00) (-3.951e-02 6.216e-02 2.281e-01) (0.000e+00 0.000e+00 0.000e+00))
299       	((3.859e+01 -8.111e+00 -9.098e+01) (7.407e-01 -1.797e-02 2.018e-01) (0.000e+00 0.000e+00 0.000e+00)) ((2.917e+01 1.900e+02 -4.694e+00) (-3.996e-02 6.100e-02 2.283e-01) (0.000e+00 0.000e+00 0.000e+00))
300       	((3.858e+01 -8.026e+00 -9.107e+01) (7.401e-01 -1.749e-02 2.021e-01) (0.000e+00 0.000e+00 0.000e+00)) ((2.911e+01 1.901e+02 -4.598e+00) (-4.033e-02 6.027e-02 2.287e-01) (0.000e+00 0.000e+00 0.000e+00))
301       	((3.859e+01 -7.962e+00 -9.122e+01) (7.396e-01 -1.704e-02 2.021e-01) (0.000e+00 0.000e+00 0.000e+00)) ((2.908e+01 1.904e+02 -4.523e+00) (-4.058e-02 6.001e-02 2.290e-01) (0.000e+00 0.000e+00 0.000e+00))
302       	((3.863e+01 -7.916e+00 -9.143e+01) (7.391e-01 -1.667e-02 2.019e-01) (0.000e+00 0.000e+00 0.000e+00)) ((2.906e+01 1.908e+02 -4.466e+00) (-4.070e-02 6.017e-02 2.292e-01) (0.000e+00 0.000e+00 0.000e+00))
303       	((3.868e+01 -7.903e+00 -9.166e+01) (7.385e-01 -1.643e-02 2.015e-01) (0.000e+00 0.000e+00 0.000e+00)) ((2.908e+01 1.912e+02 -4.448e+00) (-4.071e-02 6.065e-02 2.293e-01) (0.000e+00 0.000e+00 0.000e+00))
304       	((3.877e+01 -7.928e+00 -9.189e+01) (7.379e-01 -1.632e-02 2.011e-01) (0.000e+00 0.000e+00 0.000e+00)) ((2.913e+01 1.917e+02 -4.480e+00) (-4.065e-02 6.127e-02 2.291e-01) (0.000e+00 0.000e+00 0.000e+00))
305       	((3.888e+01 -7.975e+00 -9.210e+01) (7.373e-01 -1.634e-02 2.009e-01) (0.000e+00 0.000e+00 0.000e+00)) ((2.919e+01 1.922e+02 -4.536e+00) (-4.056e-02 6.191e-02 2.287e-01) (0.000e+00 0.000e+00 0.000e+00))
306       	((3.901e+01 -8.055e+00 -9.225e+01) (7.368e-01 -1.645e-02 2.007e-01) (0.000e+00 0.000e+00 0.000e+00)) ((2.927e+01 1.926e+02 -4.633e+00) (-4.046e-02 6.239e-02 2.281e-01) (0.000e+00 0.000e+00 0.000e+00))
307       	((3.913e+01 -8.170e+00 -9.228e+01) (7.363e-01 -1.658e-02 2.008e-01) (0.000e+00 0.000e+00 0.000e+00)) ((2.934e+01 1.927e+02 -4.777e+00) (-4.040e-02 6.257e-02 2.276e-01) (0.000e+00 0.000e+00 0.000e+00))
308       	((3.923e+01 -8.318e+00 -9.217e+01) (7.357e-01 -1.669e-02 2.009e-01) (0.000e+00 0.000e+00 0.000e+00)) ((2.941e+01 1.927e+02 -4.968e+00) (-4.037e-02 6.242e-02 2.271e-01) (0.000e+00 0.000e+00 0.000e+00))
309       	((3.931e+01 -8.514e+00 -9.189e+01) (7.350e-01 -1.671e-02 2.011e-01) (0.000e+00 0.000e+00 0.000e+00)) ((2.947e+01 1.923e+02 -5.229e+00) (-4.037e-02 6.209e-02 2.268e-01) (0.000e+00 0.000e+00 0.000e+00))
310       	((3.935e+01 -8.741e+00 -9.146e+01) (7.343e-01 -1.661e-02 2.012e-01) (0.000e+00 0.000e+00 0.000e+00)) ((2.951e+01 1.916e+02 -5.536e+00) (-4.040e-02 6.176e-02 2.269e-01) (0.000e+00 0.000e+00 0.000e+00))
311       	((3.936e+01 -8.976e+00 -9.090e+01) (7.338e-01 -1.636e-02 2.012e-01) (0.000e+00 0.000e+00 0.000e+00)) ((2.953e+01 1.907e+02 -5.862e+00) (-4.043e-02 6.165e-02 2.275e-01) (0.000e+00 0.000e+00 0.000e+00))
312       	((3.932e+01 -9.229e+00 -9.022e+01) (7.335e-01 -1.601e-02 2.010e-01) (0.000e+00 0.000e+00 0.000e+00)) ((2.953e+01 1.894e+02 -6.226e+00) (-4.045e-02 6.189e-02 2.284e-01) (0.000e+00 0.000e+00 0.000e+00))
313       	((3.924e+01 -9.446e+00 -8.948e+01) (7.337e-01 -1.562e-02 2.006e-01) (0.000e+00 0.000e+00 0.000e+00)) ((2.950e+01 1.881e+02 -6.550e+00) (-4.045e-02 6.254e-02 2.296e-01) (0.000e+00 0.000e+00 0.000e+00))
314       	((3.913e+01 -9.594e+00 -8.880e+01) (7.343e-01 -1.526e-02 2.001e-01) (0.000e+00 0.000e+00 0.000e+00)) ((2.943e+01 1.869e+02 -6.778e+00) (-4.040e-02 6.364e-02 2.310e-01) (0.000e+00 0.000e+00 0.000e+00))
315       	((3.899e+01 -9.699e+00 -8.818e+01) (7.353e-01 -1.499e-02 1.994e-01) (0.000e+00 0.000e+00 0.000e+00)) ((2.936e+01 1.857e+02 -6.958e+00) (-4.028e-02 6.521e-02 2.324e-01) (0.000e+00 0.000e+00 0.000e+00))
316       	((3.883e+01 -9.767e+00 -8.764e+01) (7.368e-01 -1.482e-02 1.986e-01) (0.000e+00 0.000e+00 0.000e+00)) ((2.928e+01 1.846e+02 -7.096e+00) (-4.011e-02 6.716e-02 2.337e-01) (0.000e+00 0.000e+00 0.000e+00))
317       	((3.869e+01 -9.798e+00 -8.725e+01) (7.390e-01 -1.470e-02 1.978e-01) (0.000e+00 0.000e+00 0.000e+00)) ((2.921e+01 1.838e+02 -7.186e+00) (-3.991e-02 6.952e-02 2.352e-01) (0.000e+00 0.000e+00 0.000e+00))
318       	((3.857e+01 -9.803e+00 -8.700e+01) (7.418e-01 -1.454e-02 1.969e-01) (0.000e+00 0.000e+00 0.000e+00)) ((2.916e+01 1.833e+02 -7.239e+00) (-3.974e-02 7.222e-02 2.369e-01) (0.000e+00 0.000e+00 0.000e+00))
319       	((3.848e+01 -9.788e+00 -8.689e+01) (7.452e-01 -1.433e-02 1.961e-01) (0.000e+00 0.000e+00 0.000e+00)) ((2.913e+01 1.830e+02 -7.266e+00) (-3.961e-02 7.513e-02 2.387e-01) (0.000e+00 0.000e+00 0.000e+00))
320       	((3.842e+01 -9.732e+00 -8.692e+01) (7.490e-01 -1.409e-02 1.954e-01) (0.000e+00 0.000e+00 0.000e+00)) ((2.911e+01 1.830e+02 -7.218e+00) (-3.952e-02 7.811e-02 2.407e-01) (0.000e+00 0.000e+00 0.000e+00))
321       	((3.840e+01 -9.637e+00 -8.707e+01) (7.530e-01 -1.389e-02 1.948e-01) (0.000e+00 0.000e+00 0.000e+00)) ((2.909e+01 1.832e+02 -7.095e+00) (-3.945e-02 8.102e-02 2.425e-01) (0.000e+00 0.000e+00 0.000e+00))
322       	((3.840e+01 -9.500e+00 -8.733e+01) (7.571e-01 -1.380e-02 1.943e-01) (0.000e+00 0.000e+00 0.000e+00)) ((2.907e+01 1.837e+02 -6.892e+00) (-3.936e-02 8.371e-02 2.441e-01) (0.000e+00 0.000e+00 0.000e+00))
323       	((3.842e+01 -9.334e+00 -8.765e+01) (7.609e-01 -1.384e-02 1.939e-01) (0.000e+00 0.000e+00 0.000e+00)) ((2.904e+01 1.842e+02 -6.630e+00) (-3.927e-02 8.610e-02 2.454e-01) (0.000e+00 0.000e+00 0.000e+00))
324       	((3.845e+01 -9.150e+00 -8.801e+01) (7.645e-01 -1.400e-02 1.937e-01) (0.000e+00 0.000e+00 0.000e+00)) ((2.901e+01 1.849e+02 -6.328e+00) (-3.916e-02 8.812e-02 2.463e-01) (0.000e+00 0.000e+00 0.000e+00))
325       	((3.849e+01 -8.949e+00 -8.839e+01) (7.677e-01 -1.425e-02 1.936e-01) (0.000e+00 0.000e+00 0.000e+00)) ((2.898e+01 1.855e+02 -5.987e+00) (-3.903e-02 8.981e-02 2.469e-01) (0.000e+00 0.000e+00 0.000e+00))
326       	((3.853e+01 -8.755e+00 -8.877e+01) (7.705e-01 -1.462e-02 1.935e-01) (0.000e+00 0.000e+00 0.000e+00)) ((2.896e+01 1.862e+02 -5.646e+00) (-3.887e-02 9.120e-02 2.470e-01) (0.000e+00 0.000e+00 0.000e+00))
327       	((3.858e+01 -8.572e+00 -8.916e+01) (7.729e-01 -1.512e-02 1.934e-01) (0.000e+00 0.000e+00 0.000e+00)) ((2.894e+01 1.869e+02 -5.316e+00) (-3.864e-02 9.233e-02 2.467e-01) (0.000e+00 0.000e+00 0.000e+00))
328       	((3.862e+01 -8.391e+00 -8.954e+01) (7.747e-01 -1.577e-02 1.934e-01) (0.000e+00 0.000e+00 0.000e+00)) ((2.892e+01 1.876e+02 -4.984e+00) (-3.835e-02 9.321e-02 2.460e-01) (0.000e+00 0.000e+00 0.000e+00))
329       	((3.867e+01 -8.231e+00 -8.991e+01) (7.761e-01 -1.653e-02 1.934e-01) (0.000e+00 0.000e+00 0.000e+00)) ((2.892e+01 1.883e+02 -4.685e+00) (-3.800e-02 9.391e-02 2.448e-01) (0.000e+00 0.000e+00 0.000e+00))
330       	((3.872e+01 -8.084e+00 -9.024e+01) (7.772e-01 -1.733e-02 1.935e-01) (0.000e+00 0.000e+00 0.000e+00)) ((2.892e+01 1.889e+02 -4.411e+00) (-3.764e-02 9.444e-02 2.435e-01) (0.000e+00 0.000e+00 0.000e+00))
331       	((3.876e+01 -7.947e+00 -9.055e+01) (7.779e-01 -1.811e-02 1.935e-01) (0.000e+00 0.000e+00 0.000e+00)) ((2.891e+01 1.895e+02 -4.154e+00) (-3.729e-02 9.480e-02 2.421e-01) (0.000e+00 0.000e+00 0.000e+00))
332       	((3.880e+01 -7.843e+00 -9.081e+01) (7.783e-01 -1.884e-02 1.936e-01) (0.000e+00 0.000e+00 0.000e+00)) ((2.892e+01 1.899e+02 -3.959e+00) (-3.695e-02 9.498e-02 2.406e-01) (0.000e+00 0.000e+00 0.000e+00))
333       	((3.882e+01 -7.785e+00 -9.100e+01) (7.784e-01 -1.953e-02 1.937e-01) (0.000e+00 0.000e+00 0.000e+00)) ((2.893e+01 1.903e+02 -3.843e+00) (-3.661e-02 9.497e-02 2.391e-01) (0.000e+00 0.000e+00 0.000e+00))
334       	((3.883e+01 -7.782e+00 -9.114e+01) (7.782e-01 -2.018e-02 1.938e-01) (0.000e+00 0.000e+00 0.000e+00)) ((2.896e+01 1.905e+02 -3.820e+00) (-3.627e-02 9.479e-02 2.376e-01) (0.000e+00 0.000e+00 0.000e+00))
335       	((3.882e+01 -7.840e+00 -9.119e+01) (7.778e-01 -2.080e-02 1.938e-01) (0.000e+00 0.000e+00 0.000e+00)) ((2.901e+01 1.906e+02 -3.900e+00) (-3.592e-02 9.447e-02 2.361e-01) (0.000e+00 0.000e+00 0.000e+00))
336       	((3.879e+01 -7.955e+00 -9.118e+01) (7.770e-01 -2.136e-02 1.938e-01) (0.000e+00 0.000e+00 0.000e+00)) ((2.908e+01 1.906e+02 -4.077e+00) (-3.556e-02 9.406e-02 2.347e-01) (0.000e+00 0.000e+00 0.000e+00))
337       	((3.875e+01 -8.103e+00 -9.111e+01) (7.762e-01 -2.187e-02 1.937e-01) (0.000e+00 0.000e+00 0.000e+00)) ((2.915e+01 1.904e+02 -4.311e+00) (-3.522e-02 9.357e-02 2.334e-01) (0.000e+00 0.000e+00 0.000e+00))
338       	((3.870e+01 -8.254e+00 -9.100e+01) (7.751e-01 -2.228e-02 1.937e-01) (0.000e+00 0.000e+00 0.000e+00)) ((2.922e+01 1.901e+02 -4.556e+00) (-3.493e-02 9.298e-02 2.323e-01) (0.000e+00 0.000e+00 0.000e+00))
339       	((3.863e+01 -8.404e+00 -9.087e+01) (7.740e-01 -2.257e-02 1.937e-01) (0.000e+00 0.000e+00 0.000e+00)) ((2.929e+01 1.899e+02 -4.807e+00) (-3.470e-02 9.232e-02 2.314e-01) (0.000e+00 0.000e+00 0.000e+00))
340       	((3.857e+01 -8.537e+00 -9.075e+01) (7.727e-01 -2.272e-02 1.938e-01) (0.000e+00 0.000e+00 0.000e+00)) ((2.935e+01 1.896e+02 -5.040e+00) (-3.458e-02 9.152e-02 2.307e-01) (0.000e+00 0.000e+00 0.000e+00))
341       	((3.851e+01 -8.635e+00 -9.063e+01) (7.714e-01 -2.270e-02 1.940e-01) (0.000e+00 0.000e+00 0.000e+00)) ((2.939e+01 1.893e+02 -5.231e+00) (-3.461e-02 9.053e-02 2.303e-01) (0.000e+00 0.000e+00 0.000e+00))
342       	((3.846e+01 -8.690e+00 -9.054e+01) (7.700e-01 -2.248e-02 1.944e-01) (0.000e+00 0.000e+00 0.000e+00)) ((2.942e+01 1.891e+02 -5.367e+00) (-3.483e-02 8.920e-02 2.301e-01) (0.000e+00 0.000e+00 0.000e+00))
343       	((3.843e+01 -8.673e+00 -9.048e+01) (7.685e-01 -2.208e-02 1.951e-01) (0.000e+00 0.000e+00 0.000e+00)) ((2.941e+01 1.890e+02 -5.404e+00) (-3.526e-02 8.739e-02 2.301e-01) (0.000e+00 0.000e+00 0.000e+00))
344       	((3.841e+01 -8.545e+00 -9.045e+01) (7.667e-01 -2.151e-02 1.962e-01) (0.000e+00 0.000e+00 0.000e+00)) ((2.934e+01 1.889e+02 -5.272e+00) (-3.593e-02 8.493e-02 2.302e-01) (0.000e+00 0.000e+00 0.000e+00))
345       	((3.841e+01 -8.314e+00 -9.046e+01) (7.645e-01 -2.080e-02 1.977e-01) (0.000e+00 0.000e+00 0.000e+00)) ((2.923e+01 1.889e+02 -4.978e+00) (-3.681e-02 8.177e-02 2.303e-01) (0.000e+00 0.000e+00 0.000e+00))
346       	((3.843e+01 -8.027e+00 -9.053e+01) (7.620e-01 -2.000e-02 1.994e-01) (0.000e+00 0.000e+00 0.000e+00)) ((2.909e+01 1.891e+02 -4.585e+00) (-3.786e-02 7.800e-02 2.305e-01) (0.000e+00 0.000e+00 0.000e+00))
347       	((3.846e+01 -7.788e+00 -9.063e+01) (7.591e-01 -1.924e-02 2.012e-01) (0.000e+00 0.000e+00 0.000e+00)) ((2.898e+01 1.893e+02 -4.247e+00) (-3.893e-02 7.392e-02 2.304e-01) (0.000e+00 0.000e+00 0.000e+00))
348       	((3.852e+01 -7.599e+00 -9.076e+01) (7.561e-01 -1.854e-02 2.030e-01) (0.000e+00 0.000e+00 0.000e+00)) ((2.889e+01 1.895e+02 -3.966e+00) (-3.993e-02 6.986e-02 2.302e-01) (0.000e+00 0.000e+00 0.000e+00))
349       	((3.859e+01 -7.515e+00 -9.090e+01) (7.533e-01 -1.792e-02 2.045e-01) (0.000e+00 0.000e+00 0.000e+00)) ((2.887e+01 1.898e+02 -3.826e+00) (-4.078e-02 6.625e-02 2.300e-01) (0.000e+00 0.000e+00 0.000e+00))
350       	((3.865e+01 -7.550e+00 -9.102e+01) (7.508e-01 -1.744e-02 2.055e-01) (0.000e+00 0.000e+00 0.000e+00)) ((2.890e+01 1.901e+02 -3.860e+00) (-4.138e-02 6.336e-02 2.297e-01) (0.000e+00 0.000e+00 0.000e+00))
351       	((3.872e+01 -7.677e+00 -9.108e+01) (7.489e-01 -1.707e-02 2.061e-01) (0.000e+00 0.000e+00 0.000e+00)) ((2.896e+01 1.903e+02 -4.024e+00) (-4.176e-02 6.142e-02 2.296e-01) (0.000e+00 0.000e+00 0.000e+00))
352       	((3.877e+01 -7.859e+00 -9.109e+01) (7.477e-01 -1.678e-02 2.063e-01) (0.000e+00 0.000e+00 0.000e+00)) ((2.904e+01 1.904e+02 -4.272e+00) (-4.190e-02 6.048e-02 2.297e-01) (0.000e+00 0.000e+00 0.000e+00))
353       	((3.882e+01 -8.043e+00 -9.102e+01) (7.470e-01 -1.651e-02 2.060e-01) (0.000e+00 0.000e+00 0.000e+00)) ((2.909e+01 1.903e+02 -4.527e+00) (-4.186e-02 6.052e-02 2.301e-01) (0.000e+00 0.000e+00 0.000e+00))
354       	((3.883e+01 -8.182e+00 -9.087e+01) (7.468e-01 -1.626e-02 2.054e-01) (0.000e+00 0.000e+00 0.000e+00)) ((2.912e+01 1.901e+02 -4.721e+00) (-4.168e-02 6.134e-02 2.307e-01) (0.000e+00 0.000e+00 0.000e+00))
355       	((3.881e+01 -8.267e+00 -9.066e+01) (7.467e-01 -1.603e-02 2.044e-01) (0.000e+00 0.000e+00 0.000e+00)) ((2.910e+01 1.897e+02 -4.844e+00) (-4.138e-02 6.280e-02 2.313e-01) (0.000e+00 0.000e+00 0.000e+00))
356       	((3.877e+01 -8.261e+00 -9.042e+01) (7.467e-01 -1.581e-02 2.032e-01) (0.000e+00 0.000e+00 0.000e+00)) ((2.904e+01 1.892e+02 -4.835e+00) (-4.099e-02 6.465e-02 2.320e-01) (0.000e+00 0.000e+00 0.000e+00))
357       	((3.868e+01 -8.214e+00 -9.018e+01) (7.466e-01 -1.550e-02 2.018e-01) (0.000e+00 0.000e+00 0.000e+00)) ((2.896e+01 1.887e+02 -4.774e+00) (-4.056e-02 6.683e-02 2.329e-01) (0.000e+00 0.000e+00 0.000e+00))
358       	((3.857e+01 -8.153e+00 -8.993e+01) (7.468e-01 -1.513e-02 2.002e-01) (0.000e+00 0.000e+00 0.000e+00)) ((2.888e+01 1.882e+02 -4.696e+00) (-4.010e-02 6.923e-02 2.340e-01) (0.000e+00 0.000e+00 0.000e+00))
359       	((3.844e+01 -8.123e+00 -8.968e+01) (7.472e-01 -1.479e-02 1.985e-01) (0.000e+00 0.000e+00 0.000e+00)) ((2.882e+01 1.877e+02 -4.672e+00) (-3.958e-02 7.191e-02 2.352e-01) (0.000e+00 0.000e+00 0.000e+00))
360       	((3.831e+01 -8.120e+00 -8.947e+01) (7.481e-01 -1.455e-02 1.966e-01) (0.000e+00 0.000e+00 0.000e+00)) ((2.878e+01 1.872e+02 -4.692e+00) (-3.899e-02 7.496e-02 2.365e-01) (0.000e+00 0.000e+00 0.000e+00))
