# Forces  
# CofR    : (0.000e+00 0.000e+00 0.000e+00)
# Time    forces(pressure viscous porous) moment(pressure viscous porous)
241       	((4.412e+00 -2.944e+00 -4.947e+01) (6.235e-01 3.430e-02 1.498e-02) (0.000e+00 0.000e+00 0.000e+00)) ((1.189e+01 6.408e+01 -4.410e+00) (5.094e-03 -1.440e-01 2.398e-01) (0.000e+00 0.000e+00 0.000e+00))
242       	((4.387e+00 -2.864e+00 -5.040e+01) (6.231e-01 3.431e-02 1.477e-02) (0.000e+00 0.000e+00 0.000e+00)) ((1.216e+01 6.476e+01 -4.262e+00) (5.117e-03 -1.437e-01 2.399e-01) (0.000e+00 0.000e+00 0.000e+00))
243       	((4.382e+00 -2.772e+00 -5.110e+01) (6.224e-01 3.435e-02 1.448e-02) (0.000e+00 0.000e+00 0.000e+00)) ((1.236e+01 6.532e+01 -4.083e+00) (5.172e-03 -1.431e-01 2.399e-01) (0.000e+00 0.000e+00 0.000e+00))
244       	((4.386e+00 -2.671e+00 -5.199e+01) (6.213e-01 3.444e-02 1.437e-02) (0.000e+00 0.000e+00 0.000e+00)) ((1.260e+01 6.608e+01 -3.877e+00) (5.168e-03 -1.430e-01 2.399e-01) (0.000e+00 0.000e+00 0.000e+00))
245       	((4.413e+00 -2.582e+00 -5.296e+01) (6.201e-01 3.462e-02 1.434e-02) (0.000e+00 0.000e+00 0.000e+00)) ((1.284e+01 6.700e+01 -3.680e+00) (5.146e-03 -1.430e-01 2.401e-01) (0.000e+00 0.000e+00 0.000e+00))
246       	((4.455e+00 -2.503e+00 -5.356e+01) (6.187e-01 3.486e-02 1.435e-02) (0.000e+00 0.000e+00 0.000e+00)) ((1.298e+01 6.767e+01 -3.495e+00) (5.121e-03 -1.431e-01 2.403e-01) (0.000e+00 0.000e+00 0.000e+00))
247       	((4.516e+00 -2.445e+00 -5.416e+01) (6.176e-01 3.517e-02 1.437e-02) (0.000e+00 0.000e+00 0.000e+00)) ((1.312e+01 6.844e+01 -3.347e+00) (5.107e-03 -1.433e-01 2.407e-01) (0.000e+00 0.000e+00 0.000e+00))
248       	((4.605e+00 -2.422e+00 -5.483e+01) (6.168e-01 3.552e-02 1.431e-02) (0.000e+00 0.000e+00 0.000e+00)) ((1.326e+01 6.940e+01 -3.268e+00) (5.147e-03 -1.434e-01 2.411e-01) (0.000e+00 0.000e+00 0.000e+00))
249       	((4.685e+00 -2.409e+00 -5.520e+01) (6.166e-01 3.586e-02 1.408e-02) (0.000e+00 0.000e+00 0.000e+00)) ((1.332e+01 7.006e+01 -3.227e+00) (5.270e-03 -1.433e-01 2.415e-01) (0.000e+00 0.000e+00 0.000e+00))
250       	((4.784e+00 -2.422e+00 -5.540e+01) (6.168e-01 3.622e-02 1.379e-02) (0.000e+00 0.000e+00 0.000e+00)) ((1.333e+01 7.068e+01 -3.244e+00) (5.439e-03 -1.431e-01 2.420e-01) (0.000e+00 0.000e+00 0.000e+00))
251       	((4.880e+00 -2.444e+00 -5.538e+01) (6.173e-01 3.655e-02 1.357e-02) (0.000e+00 0.000e+00 0.000e+00)) ((1.329e+01 7.109e+01 -3.291e+00) (5.582e-03 -1.429e-01 2.426e-01) (0.000e+00 0.000e+00 0.000e+00))
252       	((4.946e+00 -2.462e+00 -5.530e+01) (6.179e-01 3.684e-02 1.346e-02) (0.000e+00 0.000e+00 0.000e+00)) ((1.325e+01 7.129e+01 -3.345e+00) (5.695e-03 -1.430e-01 2.432e-01) (0.000e+00 0.000e+00 0.000e+00))
253       	((5.014e+00 -2.500e+00 -5.510e+01) (6.187e-01 3.705e-02 1.353e-02) (0.000e+00 0.000e+00 0.000e+00)) ((1.317e+01 7.139e+01 -3.434e+00) (5.736e-03 -1.433e-01 2.437e-01) (0.000e+00 0.000e+00 0.000e+00))
254       	((5.074e+00 -2.552e+00 -5.476e+01) (6.197e-01 3.710e-02 1.376e-02) (0.000e+00 0.000e+00 0.000e+00)) ((1.307e+01 7.133e+01 -3.552e+00) (5.697e-03 -1.438e-01 2.442e-01) (0.000e+00 0.000e+00 0.000e+00))
255       	((5.102e+00 -2.604e+00 -5.453e+01) (6.210e-01 3.703e-02 1.411e-02) (0.000e+00 0.000e+00 0.000e+00)) ((1.301e+01 7.122e+01 -3.669e+00) (5.602e-03 -1.446e-01 2.446e-01) (0.000e+00 0.000e+00 0.000e+00))
256       	((5.111e+00 -2.656e+00 -5.424e+01) (6.227e-01 3.687e-02 1.450e-02) (0.000e+00 0.000e+00 0.000e+00)) ((1.295e+01 7.098e+01 -3.783e+00) (5.477e-03 -1.455e-01 2.449e-01) (0.000e+00 0.000e+00 0.000e+00))
257       	((5.088e+00 -2.706e+00 -5.394e+01) (6.247e-01 3.665e-02 1.491e-02) (0.000e+00 0.000e+00 0.000e+00)) ((1.290e+01 7.060e+01 -3.896e+00) (5.333e-03 -1.464e-01 2.453e-01) (0.000e+00 0.000e+00 0.000e+00))
258       	((5.042e+00 -2.759e+00 -5.380e+01) (6.270e-01 3.640e-02 1.532e-02) (0.000e+00 0.000e+00 0.000e+00)) ((1.290e+01 7.029e+01 -4.010e+00) (5.173e-03 -1.473e-01 2.456e-01) (0.000e+00 0.000e+00 0.000e+00))
259       	((4.955e+00 -2.808e+00 -5.371e+01) (6.295e-01 3.609e-02 1.573e-02) (0.000e+00 0.000e+00 0.000e+00)) ((1.293e+01 6.983e+01 -4.122e+00) (4.993e-03 -1.482e-01 2.461e-01) (0.000e+00 0.000e+00 0.000e+00))
260       	((4.863e+00 -2.863e+00 -5.361e+01) (6.319e-01 3.579e-02 1.615e-02) (0.000e+00 0.000e+00 0.000e+00)) ((1.295e+01 6.934e+01 -4.238e+00) (4.808e-03 -1.491e-01 2.465e-01) (0.000e+00 0.000e+00 0.000e+00))
261       	((4.792e+00 -2.927e+00 -5.344e+01) (6.341e-01 3.555e-02 1.653e-02) (0.000e+00 0.000e+00 0.000e+00)) ((1.292e+01 6.893e+01 -4.360e+00) (4.640e-03 -1.499e-01 2.470e-01) (0.000e+00 0.000e+00 0.000e+00))
262       	((4.726e+00 -2.986e+00 -5.326e+01) (6.361e-01 3.541e-02 1.694e-02) (0.000e+00 0.000e+00 0.000e+00)) ((1.289e+01 6.852e+01 -4.468e+00) (4.475e-03 -1.508e-01 2.474e-01) (0.000e+00 0.000e+00 0.000e+00))
263       	((4.664e+00 -3.043e+00 -5.316e+01) (6.379e-01 3.538e-02 1.734e-02) (0.000e+00 0.000e+00 0.000e+00)) ((1.289e+01 6.816e+01 -4.573e+00) (4.323e-03 -1.518e-01 2.479e-01) (0.000e+00 0.000e+00 0.000e+00))
264       	((4.632e+00 -3.087e+00 -5.314e+01) (6.393e-01 3.542e-02 1.766e-02) (0.000e+00 0.000e+00 0.000e+00)) ((1.289e+01 6.804e+01 -4.652e+00) (4.203e-03 -1.526e-01 2.483e-01) (0.000e+00 0.000e+00 0.000e+00))
265       	((4.610e+00 -3.105e+00 -5.315e+01) (6.405e-01 3.549e-02 1.784e-02) (0.000e+00 0.000e+00 0.000e+00)) ((1.289e+01 6.800e+01 -4.686e+00) (4.131e-03 -1.532e-01 2.488e-01) (0.000e+00 0.000e+00 0.000e+00))
266       	((4.604e+00 -3.098e+00 -5.335e+01) (6.412e-01 3.560e-02 1.787e-02) (0.000e+00 0.000e+00 0.000e+00)) ((1.295e+01 6.820e+01 -4.678e+00) (4.114e-03 -1.535e-01 2.492e-01) (0.000e+00 0.000e+00 0.000e+00))
267       	((4.610e+00 -3.062e+00 -5.355e+01) (6.415e-01 3.572e-02 1.779e-02) (0.000e+00 0.000e+00 0.000e+00)) ((1.300e+01 6.844e+01 -4.616e+00) (4.130e-03 -1.535e-01 2.496e-01) (0.000e+00 0.000e+00 0.000e+00))
268       	((4.626e+00 -3.009e+00 -5.369e+01) (6.415e-01 3.577e-02 1.760e-02) (0.000e+00 0.000e+00 0.000e+00)) ((1.303e+01 6.866e+01 -4.526e+00) (4.171e-03 -1.533e-01 2.498e-01) (0.000e+00 0.000e+00 0.000e+00))
269       	((4.663e+00 -2.935e+00 -5.384e+01) (6.411e-01 3.569e-02 1.729e-02) (0.000e+00 0.000e+00 0.000e+00)) ((1.305e+01 6.901e+01 -4.394e+00) (4.240e-03 -1.527e-01 2.499e-01) (0.000e+00 0.000e+00 0.000e+00))
270       	((4.697e+00 -2.868e+00 -5.395e+01) (6.404e-01 3.545e-02 1.686e-02) (0.000e+00 0.000e+00 0.000e+00)) ((1.306e+01 6.929e+01 -4.276e+00) (4.334e-03 -1.518e-01 2.496e-01) (0.000e+00 0.000e+00 0.000e+00))
271       	((4.723e+00 -2.800e+00 -5.405e+01) (6.396e-01 3.514e-02 1.637e-02) (0.000e+00 0.000e+00 0.000e+00)) ((1.309e+01 6.950e+01 -4.157e+00) (4.441e-03 -1.508e-01 2.491e-01) (0.000e+00 0.000e+00 0.000e+00))
272       	((4.748e+00 -2.727e+00 -5.414e+01) (6.389e-01 3.484e-02 1.586e-02) (0.000e+00 0.000e+00 0.000e+00)) ((1.311e+01 6.970e+01 -4.025e+00) (4.559e-03 -1.497e-01 2.487e-01) (0.000e+00 0.000e+00 0.000e+00))
273       	((4.766e+00 -2.651e+00 -5.416e+01) (6.383e-01 3.456e-02 1.538e-02) (0.000e+00 0.000e+00 0.000e+00)) ((1.311e+01 6.982e+01 -3.886e+00) (4.679e-03 -1.486e-01 2.482e-01) (0.000e+00 0.000e+00 0.000e+00))
274       	((4.771e+00 -2.581e+00 -5.419e+01) (6.381e-01 3.429e-02 1.499e-02) (0.000e+00 0.000e+00 0.000e+00)) ((1.313e+01 6.988e+01 -3.759e+00) (4.775e-03 -1.477e-01 2.478e-01) (0.000e+00 0.000e+00 0.000e+00))
275       	((4.771e+00 -2.524e+00 -5.415e+01) (6.381e-01 3.407e-02 1.477e-02) (0.000e+00 0.000e+00 0.000e+00)) ((1.313e+01 6.984e+01 -3.656e+00) (4.828e-03 -1.471e-01 2.475e-01) (0.000e+00 0.000e+00 0.000e+00))
276       	((4.762e+00 -2.497e+00 -5.411e+01) (6.386e-01 3.400e-02 1.474e-02) (0.000e+00 0.000e+00 0.000e+00)) ((1.313e+01 6.973e+01 -3.608e+00) (4.840e-03 -1.468e-01 2.474e-01) (0.000e+00 0.000e+00 0.000e+00))
277       	((4.749e+00 -2.512e+00 -5.435e+01) (6.391e-01 3.406e-02 1.495e-02) (0.000e+00 0.000e+00 0.000e+00)) ((1.322e+01 6.985e+01 -3.635e+00) (4.789e-03 -1.470e-01 2.474e-01) (0.000e+00 0.000e+00 0.000e+00))
278       	((4.724e+00 -2.553e+00 -5.474e+01) (6.396e-01 3.424e-02 1.540e-02) (0.000e+00 0.000e+00 0.000e+00)) ((1.336e+01 7.004e+01 -3.708e+00) (4.660e-03 -1.477e-01 2.477e-01) (0.000e+00 0.000e+00 0.000e+00))
279       	((4.678e+00 -2.636e+00 -5.553e+01) (6.399e-01 3.452e-02 1.608e-02) (0.000e+00 0.000e+00 0.000e+00)) ((1.361e+01 7.047e+01 -3.859e+00) (4.448e-03 -1.488e-01 2.480e-01) (0.000e+00 0.000e+00 0.000e+00))
280       	((4.627e+00 -2.728e+00 -5.609e+01) (6.398e-01 3.479e-02 1.685e-02) (0.000e+00 0.000e+00 0.000e+00)) ((1.379e+01 7.070e+01 -4.017e+00) (4.190e-03 -1.500e-01 2.483e-01) (0.000e+00 0.000e+00 0.000e+00))
281       	((4.584e+00 -2.821e+00 -5.638e+01) (6.395e-01 3.493e-02 1.760e-02) (0.000e+00 0.000e+00 0.000e+00)) ((1.389e+01 7.074e+01 -4.168e+00) (3.909e-03 -1.511e-01 2.484e-01) (0.000e+00 0.000e+00 0.000e+00))
282       	((4.553e+00 -2.928e+00 -5.681e+01) (6.390e-01 3.480e-02 1.823e-02) (0.000e+00 0.000e+00 0.000e+00)) ((1.402e+01 7.094e+01 -4.328e+00) (3.619e-03 -1.520e-01 2.483e-01) (0.000e+00 0.000e+00 0.000e+00))
283       	((4.556e+00 -3.039e+00 -5.740e+01) (6.387e-01 3.460e-02 1.851e-02) (0.000e+00 0.000e+00 0.000e+00)) ((1.417e+01 7.140e+01 -4.484e+00) (3.456e-03 -1.524e-01 2.482e-01) (0.000e+00 0.000e+00 0.000e+00))
284       	((4.574e+00 -3.127e+00 -5.765e+01) (6.386e-01 3.452e-02 1.841e-02) (0.000e+00 0.000e+00 0.000e+00)) ((1.421e+01 7.169e+01 -4.596e+00) (3.466e-03 -1.523e-01 2.480e-01) (0.000e+00 0.000e+00 0.000e+00))
285       	((4.622e+00 -3.206e+00 -5.790e+01) (6.386e-01 3.456e-02 1.796e-02) (0.000e+00 0.000e+00 0.000e+00)) ((1.423e+01 7.211e+01 -4.694e+00) (3.642e-03 -1.516e-01 2.478e-01) (0.000e+00 0.000e+00 0.000e+00))
286       	((4.681e+00 -3.243e+00 -5.775e+01) (6.388e-01 3.458e-02 1.726e-02) (0.000e+00 0.000e+00 0.000e+00)) ((1.414e+01 7.228e+01 -4.727e+00) (3.920e-03 -1.505e-01 2.476e-01) (0.000e+00 0.000e+00 0.000e+00))
287       	((4.730e+00 -3.233e+00 -5.728e+01) (6.392e-01 3.449e-02 1.653e-02) (0.000e+00 0.000e+00 0.000e+00)) ((1.397e+01 7.214e+01 -4.687e+00) (4.203e-03 -1.493e-01 2.473e-01) (0.000e+00 0.000e+00 0.000e+00))
288       	((4.783e+00 -3.189e+00 -5.664e+01) (6.399e-01 3.434e-02 1.586e-02) (0.000e+00 0.000e+00 0.000e+00)) ((1.377e+01 7.187e+01 -4.595e+00) (4.457e-03 -1.481e-01 2.471e-01) (0.000e+00 0.000e+00 0.000e+00))
289       	((4.837e+00 -3.110e+00 -5.596e+01) (6.407e-01 3.403e-02 1.533e-02) (0.000e+00 0.000e+00 0.000e+00)) ((1.356e+01 7.155e+01 -4.455e+00) (4.642e-03 -1.473e-01 2.469e-01) (0.000e+00 0.000e+00 0.000e+00))
290       	((4.878e+00 -3.012e+00 -5.562e+01) (6.416e-01 3.365e-02 1.503e-02) (0.000e+00 0.000e+00 0.000e+00)) ((1.347e+01 7.143e+01 -4.294e+00) (4.741e-03 -1.467e-01 2.468e-01) (0.000e+00 0.000e+00 0.000e+00))
291       	((4.908e+00 -2.908e+00 -5.550e+01) (6.425e-01 3.327e-02 1.504e-02) (0.000e+00 0.000e+00 0.000e+00)) ((1.345e+01 7.143e+01 -4.134e+00) (4.724e-03 -1.468e-01 2.466e-01) (0.000e+00 0.000e+00 0.000e+00))
292       	((4.925e+00 -2.795e+00 -5.543e+01) (6.430e-01 3.283e-02 1.539e-02) (0.000e+00 0.000e+00 0.000e+00)) ((1.345e+01 7.141e+01 -3.970e+00) (4.565e-03 -1.474e-01 2.464e-01) (0.000e+00 0.000e+00 0.000e+00))
293       	((4.928e+00 -2.719e+00 -5.551e+01) (6.432e-01 3.232e-02 1.595e-02) (0.000e+00 0.000e+00 0.000e+00)) ((1.350e+01 7.144e+01 -3.875e+00) (4.304e-03 -1.485e-01 2.461e-01) (0.000e+00 0.000e+00 0.000e+00))
294       	((4.922e+00 -2.695e+00 -5.557e+01) (6.431e-01 3.182e-02 1.661e-02) (0.000e+00 0.000e+00 0.000e+00)) ((1.354e+01 7.141e+01 -3.867e+00) (3.997e-03 -1.498e-01 2.456e-01) (0.000e+00 0.000e+00 0.000e+00))
295       	((4.899e+00 -2.721e+00 -5.545e+01) (6.429e-01 3.139e-02 1.732e-02) (0.000e+00 0.000e+00 0.000e+00)) ((1.352e+01 7.116e+01 -3.945e+00) (3.673e-03 -1.512e-01 2.451e-01) (0.000e+00 0.000e+00 0.000e+00))
296       	((4.866e+00 -2.793e+00 -5.524e+01) (6.425e-01 3.099e-02 1.803e-02) (0.000e+00 0.000e+00 0.000e+00)) ((1.346e+01 7.080e+01 -4.093e+00) (3.341e-03 -1.526e-01 2.445e-01) (0.000e+00 0.000e+00 0.000e+00))
297       	((4.836e+00 -2.893e+00 -5.507e+01) (6.421e-01 3.064e-02 1.866e-02) (0.000e+00 0.000e+00 0.000e+00)) ((1.340e+01 7.052e+01 -4.277e+00) (3.031e-03 -1.537e-01 2.439e-01) (0.000e+00 0.000e+00 0.000e+00))
298       	((4.803e+00 -3.005e+00 -5.487e+01) (6.415e-01 3.035e-02 1.911e-02) (0.000e+00 0.000e+00 0.000e+00)) ((1.332e+01 7.022e+01 -4.474e+00) (2.783e-03 -1.545e-01 2.433e-01) (0.000e+00 0.000e+00 0.000e+00))
299       	((4.759e+00 -3.125e+00 -5.458e+01) (6.409e-01 3.007e-02 1.923e-02) (0.000e+00 0.000e+00 0.000e+00)) ((1.323e+01 6.982e+01 -4.680e+00) (2.665e-03 -1.546e-01 2.426e-01) (0.000e+00 0.000e+00 0.000e+00))
300       	((4.713e+00 -3.234e+00 -5.432e+01) (6.401e-01 2.979e-02 1.894e-02) (0.000e+00 0.000e+00 0.000e+00)) ((1.314e+01 6.946e+01 -4.868e+00) (2.701e-03 -1.540e-01 2.418e-01) (0.000e+00 0.000e+00 0.000e+00))
301       	((4.667e+00 -3.332e+00 -5.413e+01) (6.393e-01 2.958e-02 1.824e-02) (0.000e+00 0.000e+00 0.000e+00)) ((1.307e+01 6.916e+01 -5.042e+00) (2.908e-03 -1.527e-01 2.411e-01) (0.000e+00 0.000e+00 0.000e+00))
302       	((4.616e+00 -3.416e+00 -5.401e+01) (6.389e-01 2.954e-02 1.725e-02) (0.000e+00 0.000e+00 0.000e+00)) ((1.302e+01 6.890e+01 -5.194e+00) (3.261e-03 -1.509e-01 2.405e-01) (0.000e+00 0.000e+00 0.000e+00))
303       	((4.581e+00 -3.463e+00 -5.405e+01) (6.388e-01 2.974e-02 1.613e-02) (0.000e+00 0.000e+00 0.000e+00)) ((1.302e+01 6.882e+01 -5.280e+00) (3.704e-03 -1.490e-01 2.404e-01) (0.000e+00 0.000e+00 0.000e+00))
304       	((4.568e+00 -3.459e+00 -5.409e+01) (6.391e-01 3.013e-02 1.504e-02) (0.000e+00 0.000e+00 0.000e+00)) ((1.302e+01 6.883e+01 -5.273e+00) (4.173e-03 -1.471e-01 2.405e-01) (0.000e+00 0.000e+00 0.000e+00))
305       	((4.574e+00 -3.423e+00 -5.421e+01) (6.397e-01 3.063e-02 1.409e-02) (0.000e+00 0.000e+00 0.000e+00)) ((1.304e+01 6.899e+01 -5.206e+00) (4.623e-03 -1.456e-01 2.410e-01) (0.000e+00 0.000e+00 0.000e+00))
306       	((4.598e+00 -3.358e+00 -5.436e+01) (6.403e-01 3.116e-02 1.332e-02) (0.000e+00 0.000e+00 0.000e+00)) ((1.307e+01 6.924e+01 -5.084e+00) (5.030e-03 -1.443e-01 2.416e-01) (0.000e+00 0.000e+00 0.000e+00))
307       	((4.628e+00 -3.271e+00 -5.444e+01) (6.411e-01 3.169e-02 1.280e-02) (0.000e+00 0.000e+00 0.000e+00)) ((1.309e+01 6.942e+01 -4.927e+00) (5.353e-03 -1.434e-01 2.422e-01) (0.000e+00 0.000e+00 0.000e+00))
308       	((4.662e+00 -3.208e+00 -5.451e+01) (6.417e-01 3.220e-02 1.261e-02) (0.000e+00 0.000e+00 0.000e+00)) ((1.312e+01 6.958e+01 -4.816e+00) (5.553e-03 -1.431e-01 2.429e-01) (0.000e+00 0.000e+00 0.000e+00))
309       	((4.711e+00 -3.189e+00 -5.455e+01) (6.420e-01 3.264e-02 1.278e-02) (0.000e+00 0.000e+00 0.000e+00)) ((1.313e+01 6.977e+01 -4.782e+00) (5.608e-03 -1.435e-01 2.436e-01) (0.000e+00 0.000e+00 0.000e+00))
310       	((4.762e+00 -3.209e+00 -5.455e+01) (6.421e-01 3.300e-02 1.330e-02) (0.000e+00 0.000e+00 0.000e+00)) ((1.312e+01 6.991e+01 -4.814e+00) (5.527e-03 -1.445e-01 2.441e-01) (0.000e+00 0.000e+00 0.000e+00))
311       	((4.803e+00 -3.249e+00 -5.447e+01) (6.420e-01 3.326e-02 1.409e-02) (0.000e+00 0.000e+00 0.000e+00)) ((1.310e+01 6.995e+01 -4.880e+00) (5.330e-03 -1.460e-01 2.445e-01) (0.000e+00 0.000e+00 0.000e+00))
312       	((4.840e+00 -3.306e+00 -5.432e+01) (6.420e-01 3.335e-02 1.503e-02) (0.000e+00 0.000e+00 0.000e+00)) ((1.306e+01 6.992e+01 -4.972e+00) (5.057e-03 -1.478e-01 2.447e-01) (0.000e+00 0.000e+00 0.000e+00))
313       	((4.855e+00 -3.356e+00 -5.402e+01) (6.421e-01 3.322e-02 1.595e-02) (0.000e+00 0.000e+00 0.000e+00)) ((1.298e+01 6.973e+01 -5.051e+00) (4.756e-03 -1.495e-01 2.446e-01) (0.000e+00 0.000e+00 0.000e+00))
314       	((4.853e+00 -3.399e+00 -5.380e+01) (6.422e-01 3.294e-02 1.670e-02) (0.000e+00 0.000e+00 0.000e+00)) ((1.292e+01 6.953e+01 -5.119e+00) (4.477e-03 -1.508e-01 2.443e-01) (0.000e+00 0.000e+00 0.000e+00))
315       	((4.836e+00 -3.428e+00 -5.358e+01) (6.425e-01 3.262e-02 1.715e-02) (0.000e+00 0.000e+00 0.000e+00)) ((1.286e+01 6.930e+01 -5.160e+00) (4.275e-03 -1.515e-01 2.439e-01) (0.000e+00 0.000e+00 0.000e+00))
316       	((4.801e+00 -3.428e+00 -5.332e+01) (6.430e-01 3.235e-02 1.725e-02) (0.000e+00 0.000e+00 0.000e+00)) ((1.279e+01 6.897e+01 -5.144e+00) (4.193e-03 -1.515e-01 2.436e-01) (0.000e+00 0.000e+00 0.000e+00))
317       	((4.765e+00 -3.415e+00 -5.323e+01) (6.439e-01 3.222e-02 1.700e-02) (0.000e+00 0.000e+00 0.000e+00)) ((1.276e+01 6.879e+01 -5.104e+00) (4.245e-03 -1.510e-01 2.436e-01) (0.000e+00 0.000e+00 0.000e+00))
318       	((4.740e+00 -3.395e+00 -5.322e+01) (6.450e-01 3.218e-02 1.647e-02) (0.000e+00 0.000e+00 0.000e+00)) ((1.276e+01 6.873e+01 -5.049e+00) (4.408e-03 -1.500e-01 2.438e-01) (0.000e+00 0.000e+00 0.000e+00))
319       	((4.724e+00 -3.352e+00 -5.327e+01) (6.463e-01 3.233e-02 1.577e-02) (0.000e+00 0.000e+00 0.000e+00)) ((1.276e+01 6.876e+01 -4.949e+00) (4.664e-03 -1.488e-01 2.442e-01) (0.000e+00 0.000e+00 0.000e+00))
320       	((4.733e+00 -3.293e+00 -5.323e+01) (6.476e-01 3.269e-02 1.506e-02) (0.000e+00 0.000e+00 0.000e+00)) ((1.272e+01 6.882e+01 -4.823e+00) (4.963e-03 -1.476e-01 2.447e-01) (0.000e+00 0.000e+00 0.000e+00))
321       	((4.764e+00 -3.219e+00 -5.313e+01) (6.487e-01 3.316e-02 1.446e-02) (0.000e+00 0.000e+00 0.000e+00)) ((1.267e+01 6.891e+01 -4.680e+00) (5.248e-03 -1.467e-01 2.453e-01) (0.000e+00 0.000e+00 0.000e+00))
322       	((4.822e+00 -3.134e+00 -5.300e+01) (6.496e-01 3.363e-02 1.401e-02) (0.000e+00 0.000e+00 0.000e+00)) ((1.263e+01 6.907e+01 -4.526e+00) (5.489e-03 -1.460e-01 2.458e-01) (0.000e+00 0.000e+00 0.000e+00))
323       	((4.892e+00 -3.050e+00 -5.302e+01) (6.502e-01 3.396e-02 1.368e-02) (0.000e+00 0.000e+00 0.000e+00)) ((1.264e+01 6.937e+01 -4.388e+00) (5.680e-03 -1.456e-01 2.462e-01) (0.000e+00 0.000e+00 0.000e+00))
324       	((4.964e+00 -2.972e+00 -5.315e+01) (6.508e-01 3.411e-02 1.342e-02) (0.000e+00 0.000e+00 0.000e+00)) ((1.270e+01 6.973e+01 -4.269e+00) (5.833e-03 -1.454e-01 2.466e-01) (0.000e+00 0.000e+00 0.000e+00))
325       	((5.036e+00 -2.904e+00 -5.336e+01) (6.514e-01 3.414e-02 1.324e-02) (0.000e+00 0.000e+00 0.000e+00)) ((1.278e+01 7.015e+01 -4.171e+00) (5.951e-03 -1.454e-01 2.470e-01) (0.000e+00 0.000e+00 0.000e+00))
326       	((5.089e+00 -2.847e+00 -5.360e+01) (6.521e-01 3.408e-02 1.319e-02) (0.000e+00 0.000e+00 0.000e+00)) ((1.287e+01 7.050e+01 -4.098e+00) (6.023e-03 -1.456e-01 2.474e-01) (0.000e+00 0.000e+00 0.000e+00))
327       	((5.115e+00 -2.805e+00 -5.386e+01) (6.530e-01 3.396e-02 1.326e-02) (0.000e+00 0.000e+00 0.000e+00)) ((1.297e+01 7.077e+01 -4.054e+00) (6.048e-03 -1.461e-01 2.478e-01) (0.000e+00 0.000e+00 0.000e+00))
328       	((5.106e+00 -2.775e+00 -5.423e+01) (6.539e-01 3.382e-02 1.344e-02) (0.000e+00 0.000e+00 0.000e+00)) ((1.311e+01 7.100e+01 -4.035e+00) (6.037e-03 -1.467e-01 2.482e-01) (0.000e+00 0.000e+00 0.000e+00))
329       	((5.065e+00 -2.764e+00 -5.451e+01) (6.547e-01 3.373e-02 1.367e-02) (0.000e+00 0.000e+00 0.000e+00)) ((1.321e+01 7.102e+01 -4.046e+00) (6.015e-03 -1.473e-01 2.486e-01) (0.000e+00 0.000e+00 0.000e+00))
330       	((5.015e+00 -2.771e+00 -5.466e+01) (6.555e-01 3.366e-02 1.390e-02) (0.000e+00 0.000e+00 0.000e+00)) ((1.327e+01 7.092e+01 -4.079e+00) (5.981e-03 -1.478e-01 2.489e-01) (0.000e+00 0.000e+00 0.000e+00))
331       	((4.959e+00 -2.789e+00 -5.480e+01) (6.560e-01 3.354e-02 1.411e-02) (0.000e+00 0.000e+00 0.000e+00)) ((1.333e+01 7.077e+01 -4.127e+00) (5.935e-03 -1.481e-01 2.491e-01) (0.000e+00 0.000e+00 0.000e+00))
332       	((4.916e+00 -2.820e+00 -5.484e+01) (6.560e-01 3.341e-02 1.426e-02) (0.000e+00 0.000e+00 0.000e+00)) ((1.334e+01 7.060e+01 -4.187e+00) (5.895e-03 -1.482e-01 2.490e-01) (0.000e+00 0.000e+00 0.000e+00))
333       	((4.889e+00 -2.862e+00 -5.478e+01) (6.557e-01 3.334e-02 1.436e-02) (0.000e+00 0.000e+00 0.000e+00)) ((1.331e+01 7.041e+01 -4.256e+00) (5.876e-03 -1.480e-01 2.489e-01) (0.000e+00 0.000e+00 0.000e+00))
334       	((4.877e+00 -2.912e+00 -5.463e+01) (6.551e-01 3.338e-02 1.438e-02) (0.000e+00 0.000e+00 0.000e+00)) ((1.325e+01 7.020e+01 -4.332e+00) (5.891e-03 -1.478e-01 2.487e-01) (0.000e+00 0.000e+00 0.000e+00))
335       	((4.874e+00 -2.962e+00 -5.441e+01) (6.542e-01 3.349e-02 1.436e-02) (0.000e+00 0.000e+00 0.000e+00)) ((1.317e+01 6.998e+01 -4.408e+00) (5.929e-03 -1.474e-01 2.483e-01) (0.000e+00 0.000e+00 0.000e+00))
336       	((4.879e+00 -3.008e+00 -5.405e+01) (6.532e-01 3.358e-02 1.430e-02) (0.000e+00 0.000e+00 0.000e+00)) ((1.307e+01 6.966e+01 -4.478e+00) (5.982e-03 -1.471e-01 2.479e-01) (0.000e+00 0.000e+00 0.000e+00))
337       	((4.879e+00 -3.042e+00 -5.362e+01) (6.522e-01 3.362e-02 1.417e-02) (0.000e+00 0.000e+00 0.000e+00)) ((1.295e+01 6.929e+01 -4.533e+00) (6.051e-03 -1.466e-01 2.473e-01) (0.000e+00 0.000e+00 0.000e+00))
338       	((4.870e+00 -3.061e+00 -5.335e+01) (6.512e-01 3.361e-02 1.397e-02) (0.000e+00 0.000e+00 0.000e+00)) ((1.289e+01 6.901e+01 -4.567e+00) (6.142e-03 -1.461e-01 2.466e-01) (0.000e+00 0.000e+00 0.000e+00))
339       	((4.854e+00 -3.064e+00 -5.307e+01) (6.502e-01 3.354e-02 1.370e-02) (0.000e+00 0.000e+00 0.000e+00)) ((1.283e+01 6.870e+01 -4.579e+00) (6.252e-03 -1.456e-01 2.459e-01) (0.000e+00 0.000e+00 0.000e+00))
340       	((4.834e+00 -3.048e+00 -5.278e+01) (6.493e-01 3.338e-02 1.337e-02) (0.000e+00 0.000e+00 0.000e+00)) ((1.277e+01 6.836e+01 -4.562e+00) (6.370e-03 -1.450e-01 2.451e-01) (0.000e+00 0.000e+00 0.000e+00))
341       	((4.816e+00 -3.013e+00 -5.263e+01) (6.483e-01 3.320e-02 1.299e-02) (0.000e+00 0.000e+00 0.000e+00)) ((1.274e+01 6.815e+01 -4.512e+00) (6.492e-03 -1.443e-01 2.443e-01) (0.000e+00 0.000e+00 0.000e+00))
342       	((4.799e+00 -2.960e+00 -5.248e+01) (6.473e-01 3.304e-02 1.260e-02) (0.000e+00 0.000e+00 0.000e+00)) ((1.272e+01 6.795e+01 -4.431e+00) (6.611e-03 -1.437e-01 2.435e-01) (0.000e+00 0.000e+00 0.000e+00))
343       	((4.782e+00 -2.890e+00 -5.230e+01) (6.462e-01 3.292e-02 1.223e-02) (0.000e+00 0.000e+00 0.000e+00)) ((1.270e+01 6.772e+01 -4.320e+00) (6.720e-03 -1.430e-01 2.429e-01) (0.000e+00 0.000e+00 0.000e+00))
344       	((4.776e+00 -2.818e+00 -5.226e+01) (6.450e-01 3.290e-02 1.190e-02) (0.000e+00 0.000e+00 0.000e+00)) ((1.270e+01 6.765e+01 -4.200e+00) (6.813e-03 -1.424e-01 2.424e-01) (0.000e+00 0.000e+00 0.000e+00))
345       	((4.775e+00 -2.740e+00 -5.222e+01) (6.437e-01 3.297e-02 1.165e-02) (0.000e+00 0.000e+00 0.000e+00)) ((1.271e+01 6.761e+01 -4.068e+00) (6.873e-03 -1.419e-01 2.421e-01) (0.000e+00 0.000e+00 0.000e+00))
346       	((4.789e+00 -2.678e+00 -5.229e+01) (6.423e-01 3.317e-02 1.150e-02) (0.000e+00 0.000e+00 0.000e+00)) ((1.275e+01 6.772e+01 -3.957e+00) (6.898e-03 -1.416e-01 2.419e-01) (0.000e+00 0.000e+00 0.000e+00))
347       	((4.812e+00 -2.637e+00 -5.246e+01) (6.410e-01 3.348e-02 1.146e-02) (0.000e+00 0.000e+00 0.000e+00)) ((1.280e+01 6.795e+01 -3.877e+00) (6.892e-03 -1.414e-01 2.419e-01) (0.000e+00 0.000e+00 0.000e+00))
348       	((4.843e+00 -2.615e+00 -5.274e+01) (6.397e-01 3.386e-02 1.155e-02) (0.000e+00 0.000e+00 0.000e+00)) ((1.289e+01 6.833e+01 -3.827e+00) (6.840e-03 -1.414e-01 2.421e-01) (0.000e+00 0.000e+00 0.000e+00))
349       	((4.877e+00 -2.619e+00 -5.308e+01) (6.385e-01 3.427e-02 1.177e-02) (0.000e+00 0.000e+00 0.000e+00)) ((1.299e+01 6.879e+01 -3.822e+00) (6.746e-03 -1.417e-01 2.423e-01) (0.000e+00 0.000e+00 0.000e+00))
350       	((4.891e+00 -2.633e+00 -5.337e+01) (6.375e-01 3.462e-02 1.206e-02) (0.000e+00 0.000e+00 0.000e+00)) ((1.308e+01 6.912e+01 -3.838e+00) (6.625e-03 -1.421e-01 2.424e-01) (0.000e+00 0.000e+00 0.000e+00))
351       	((4.895e+00 -2.658e+00 -5.361e+01) (6.366e-01 3.491e-02 1.237e-02) (0.000e+00 0.000e+00 0.000e+00)) ((1.315e+01 6.936e+01 -3.877e+00) (6.494e-03 -1.425e-01 2.424e-01) (0.000e+00 0.000e+00 0.000e+00))
352       	((4.905e+00 -2.710e+00 -5.407e+01) (6.359e-01 3.519e-02 1.270e-02) (0.000e+00 0.000e+00 0.000e+00)) ((1.328e+01 6.980e+01 -3.962e+00) (6.363e-03 -1.430e-01 2.425e-01) (0.000e+00 0.000e+00 0.000e+00))
353       	((4.910e+00 -2.757e+00 -5.434e+01) (6.355e-01 3.545e-02 1.301e-02) (0.000e+00 0.000e+00 0.000e+00)) ((1.335e+01 7.005e+01 -4.035e+00) (6.242e-03 -1.435e-01 2.427e-01) (0.000e+00 0.000e+00 0.000e+00))
354       	((4.912e+00 -2.794e+00 -5.443e+01) (6.352e-01 3.568e-02 1.329e-02) (0.000e+00 0.000e+00 0.000e+00)) ((1.336e+01 7.013e+01 -4.090e+00) (6.137e-03 -1.440e-01 2.429e-01) (0.000e+00 0.000e+00 0.000e+00))
355       	((4.923e+00 -2.833e+00 -5.476e+01) (6.350e-01 3.592e-02 1.348e-02) (0.000e+00 0.000e+00 0.000e+00)) ((1.343e+01 7.041e+01 -4.140e+00) (6.082e-03 -1.442e-01 2.431e-01) (0.000e+00 0.000e+00 0.000e+00))
356       	((4.940e+00 -2.863e+00 -5.498e+01) (6.349e-01 3.615e-02 1.345e-02) (0.000e+00 0.000e+00 0.000e+00)) ((1.346e+01 7.063e+01 -4.173e+00) (6.123e-03 -1.442e-01 2.434e-01) (0.000e+00 0.000e+00 0.000e+00))
357       	((4.959e+00 -2.888e+00 -5.509e+01) (6.351e-01 3.634e-02 1.311e-02) (0.000e+00 0.000e+00 0.000e+00)) ((1.347e+01 7.077e+01 -4.203e+00) (6.293e-03 -1.437e-01 2.437e-01) (0.000e+00 0.000e+00 0.000e+00))
358       	((4.983e+00 -2.904e+00 -5.531e+01) (6.355e-01 3.651e-02 1.246e-02) (0.000e+00 0.000e+00 0.000e+00)) ((1.350e+01 7.101e+01 -4.219e+00) (6.594e-03 -1.426e-01 2.439e-01) (0.000e+00 0.000e+00 0.000e+00))
359       	((4.999e+00 -2.892e+00 -5.560e+01) (6.362e-01 3.666e-02 1.161e-02) (0.000e+00 0.000e+00 0.000e+00)) ((1.357e+01 7.130e+01 -4.198e+00) (6.969e-03 -1.413e-01 2.441e-01) (0.000e+00 0.000e+00 0.000e+00))
360       	((5.004e+00 -2.850e+00 -5.576e+01) (6.372e-01 3.676e-02 1.068e-02) (0.000e+00 0.000e+00 0.000e+00)) ((1.362e+01 7.145e+01 -4.137e+00) (7.368e-03 -1.398e-01 2.444e-01) (0.000e+00 0.000e+00 0.000e+00))
