# Forces  
# CofR    : (0.000e+00 0.000e+00 0.000e+00)
# Time    forces(pressure viscous porous) moment(pressure viscous porous)
241       	((1.050e+01 -5.655e+00 -6.654e+01) (4.484e-01 1.126e-02 8.073e-02) (0.000e+00 0.000e+00 0.000e+00)) ((1.965e+01 -4.295e+01 7.158e+00) (-3.199e-02 -2.885e-02 2.087e-01) (0.000e+00 0.000e+00 0.000e+00))
242       	((1.051e+01 -5.653e+00 -6.653e+01) (4.483e-01 1.126e-02 8.070e-02) (0.000e+00 0.000e+00 0.000e+00)) ((1.965e+01 -4.294e+01 7.158e+00) (-3.199e-02 -2.883e-02 2.087e-01) (0.000e+00 0.000e+00 0.000e+00))
243       	((1.051e+01 -5.649e+00 -6.651e+01) (4.482e-01 1.127e-02 8.067e-02) (0.000e+00 0.000e+00 0.000e+00)) ((1.964e+01 -4.293e+01 7.155e+00) (-3.198e-02 -2.882e-02 2.086e-01) (0.000e+00 0.000e+00 0.000e+00))
244       	((1.051e+01 -5.644e+00 -6.649e+01) (4.481e-01 1.129e-02 8.065e-02) (0.000e+00 0.000e+00 0.000e+00)) ((1.964e+01 -4.291e+01 7.152e+00) (-3.197e-02 -2.882e-02 2.085e-01) (0.000e+00 0.000e+00 0.000e+00))
245       	((1.051e+01 -5.636e+00 -6.647e+01) (4.481e-01 1.132e-02 8.062e-02) (0.000e+00 0.000e+00 0.000e+00)) ((1.964e+01 -4.290e+01 7.147e+00) (-3.196e-02 -2.881e-02 2.085e-01) (0.000e+00 0.000e+00 0.000e+00))
246       	((1.051e+01 -5.627e+00 -6.646e+01) (4.480e-01 1.135e-02 8.060e-02) (0.000e+00 0.000e+00 0.000e+00)) ((1.963e+01 -4.289e+01 7.141e+00) (-3.195e-02 -2.881e-02 2.084e-01) (0.000e+00 0.000e+00 0.000e+00))
247       	((1.051e+01 -5.619e+00 -6.644e+01) (4.480e-01 1.138e-02 8.057e-02) (0.000e+00 0.000e+00 0.000e+00)) ((1.963e+01 -4.288e+01 7.134e+00) (-3.194e-02 -2.882e-02 2.084e-01) (0.000e+00 0.000e+00 0.000e+00))
248       	((1.050e+01 -5.610e+00 -6.642e+01) (4.479e-01 1.141e-02 8.054e-02) (0.000e+00 0.000e+00 0.000e+00)) ((1.963e+01 -4.286e+01 7.127e+00) (-3.193e-02 -2.882e-02 2.083e-01) (0.000e+00 0.000e+00 0.000e+00))
249       	((1.050e+01 -5.604e+00 -6.639e+01) (4.478e-01 1.143e-02 8.051e-02) (0.000e+00 0.000e+00 0.000e+00)) ((1.962e+01 -4.285e+01 7.120e+00) (-3.192e-02 -2.882e-02 2.083e-01) (0.000e+00 0.000e+00 0.000e+00))
250       	((1.048e+01 -5.598e+00 -6.636e+01) (4.478e-01 1.144e-02 8.048e-02) (0.000e+00 0.000e+00 0.000e+00)) ((1.961e+01 -4.283e+01 7.112e+00) (-3.191e-02 -2.882e-02 2.082e-01) (0.000e+00 0.000e+00 0.000e+00))
251       	((1.047e+01 -5.592e+00 -6.634e+01) (4.477e-01 1.145e-02 8.045e-02) (0.000e+00 0.000e+00 0.000e+00)) ((1.961e+01 -4.281e+01 7.106e+00) (-3.189e-02 -2.882e-02 2.082e-01) (0.000e+00 0.000e+00 0.000e+00))
252       	((1.047e+01 -5.585e+00 -6.633e+01) (4.476e-01 1.146e-02 8.042e-02) (0.000e+00 0.000e+00 0.000e+00)) ((1.961e+01 -4.281e+01 7.102e+00) (-3.188e-02 -2.881e-02 2.081e-01) (0.000e+00 0.000e+00 0.000e+00))
253       	((1.047e+01 -5.578e+00 -6.635e+01) (4.475e-01 1.148e-02 8.039e-02) (0.000e+00 0.000e+00 0.000e+00)) ((1.961e+01 -4.282e+01 7.100e+00) (-3.186e-02 -2.881e-02 2.081e-01) (0.000e+00 0.000e+00 0.000e+00))
254       	((1.048e+01 -5.570e+00 -6.638e+01) (4.474e-01 1.150e-02 8.035e-02) (0.000e+00 0.000e+00 0.000e+00)) ((1.962e+01 -4.283e+01 7.099e+00) (-3.184e-02 -2.880e-02 2.080e-01) (0.000e+00 0.000e+00 0.000e+00))
255       	((1.048e+01 -5.565e+00 -6.640e+01) (4.473e-01 1.151e-02 8.032e-02) (0.000e+00 0.000e+00 0.000e+00)) ((1.963e+01 -4.284e+01 7.099e+00) (-3.182e-02 -2.880e-02 2.080e-01) (0.000e+00 0.000e+00 0.000e+00))
256       	((1.048e+01 -5.561e+00 -6.642e+01) (4.472e-01 1.152e-02 8.028e-02) (0.000e+00 0.000e+00 0.000e+00)) ((1.963e+01 -4.286e+01 7.098e+00) (-3.180e-02 -2.880e-02 2.079e-01) (0.000e+00 0.000e+00 0.000e+00))
257       	((1.047e+01 -5.558e+00 -6.644e+01) (4.471e-01 1.152e-02 8.025e-02) (0.000e+00 0.000e+00 0.000e+00)) ((1.964e+01 -4.287e+01 7.097e+00) (-3.178e-02 -2.880e-02 2.079e-01) (0.000e+00 0.000e+00 0.000e+00))
258       	((1.047e+01 -5.555e+00 -6.644e+01) (4.470e-01 1.151e-02 8.022e-02) (0.000e+00 0.000e+00 0.000e+00)) ((1.964e+01 -4.287e+01 7.096e+00) (-3.177e-02 -2.879e-02 2.078e-01) (0.000e+00 0.000e+00 0.000e+00))
259       	((1.046e+01 -5.551e+00 -6.645e+01) (4.469e-01 1.150e-02 8.020e-02) (0.000e+00 0.000e+00 0.000e+00)) ((1.964e+01 -4.288e+01 7.094e+00) (-3.175e-02 -2.879e-02 2.078e-01) (0.000e+00 0.000e+00 0.000e+00))
260       	((1.046e+01 -5.546e+00 -6.645e+01) (4.468e-01 1.148e-02 8.018e-02) (0.000e+00 0.000e+00 0.000e+00)) ((1.964e+01 -4.288e+01 7.091e+00) (-3.174e-02 -2.878e-02 2.078e-01) (0.000e+00 0.000e+00 0.000e+00))
261       	((1.046e+01 -5.541e+00 -6.645e+01) (4.466e-01 1.146e-02 8.016e-02) (0.000e+00 0.000e+00 0.000e+00)) ((1.964e+01 -4.288e+01 7.088e+00) (-3.173e-02 -2.877e-02 2.077e-01) (0.000e+00 0.000e+00 0.000e+00))
262       	((1.045e+01 -5.537e+00 -6.644e+01) (4.465e-01 1.144e-02 8.014e-02) (0.000e+00 0.000e+00 0.000e+00)) ((1.963e+01 -4.287e+01 7.084e+00) (-3.172e-02 -2.876e-02 2.077e-01) (0.000e+00 0.000e+00 0.000e+00))
263       	((1.045e+01 -5.535e+00 -6.641e+01) (4.464e-01 1.141e-02 8.012e-02) (0.000e+00 0.000e+00 0.000e+00)) ((1.963e+01 -4.285e+01 7.080e+00) (-3.171e-02 -2.876e-02 2.076e-01) (0.000e+00 0.000e+00 0.000e+00))
264       	((1.044e+01 -5.533e+00 -6.638e+01) (4.463e-01 1.138e-02 8.010e-02) (0.000e+00 0.000e+00 0.000e+00)) ((1.962e+01 -4.284e+01 7.077e+00) (-3.170e-02 -2.875e-02 2.076e-01) (0.000e+00 0.000e+00 0.000e+00))
265       	((1.044e+01 -5.531e+00 -6.636e+01) (4.461e-01 1.136e-02 8.008e-02) (0.000e+00 0.000e+00 0.000e+00)) ((1.961e+01 -4.282e+01 7.075e+00) (-3.169e-02 -2.874e-02 2.075e-01) (0.000e+00 0.000e+00 0.000e+00))
266       	((1.044e+01 -5.531e+00 -6.633e+01) (4.460e-01 1.133e-02 8.006e-02) (0.000e+00 0.000e+00 0.000e+00)) ((1.960e+01 -4.280e+01 7.073e+00) (-3.169e-02 -2.873e-02 2.075e-01) (0.000e+00 0.000e+00 0.000e+00))
267       	((1.044e+01 -5.532e+00 -6.631e+01) (4.459e-01 1.130e-02 8.004e-02) (0.000e+00 0.000e+00 0.000e+00)) ((1.960e+01 -4.278e+01 7.072e+00) (-3.168e-02 -2.872e-02 2.074e-01) (0.000e+00 0.000e+00 0.000e+00))
268       	((1.044e+01 -5.534e+00 -6.629e+01) (4.458e-01 1.128e-02 8.002e-02) (0.000e+00 0.000e+00 0.000e+00)) ((1.959e+01 -4.277e+01 7.073e+00) (-3.168e-02 -2.872e-02 2.074e-01) (0.000e+00 0.000e+00 0.000e+00))
269       	((1.043e+01 -5.539e+00 -6.626e+01) (4.456e-01 1.125e-02 7.999e-02) (0.000e+00 0.000e+00 0.000e+00)) ((1.958e+01 -4.275e+01 7.073e+00) (-3.167e-02 -2.871e-02 2.073e-01) (0.000e+00 0.000e+00 0.000e+00))
270       	((1.042e+01 -5.544e+00 -6.623e+01) (4.455e-01 1.123e-02 7.997e-02) (0.000e+00 0.000e+00 0.000e+00)) ((1.957e+01 -4.273e+01 7.074e+00) (-3.166e-02 -2.871e-02 2.073e-01) (0.000e+00 0.000e+00 0.000e+00))
271       	((1.042e+01 -5.548e+00 -6.621e+01) (4.454e-01 1.121e-02 7.994e-02) (0.000e+00 0.000e+00 0.000e+00)) ((1.957e+01 -4.272e+01 7.075e+00) (-3.166e-02 -2.870e-02 2.072e-01) (0.000e+00 0.000e+00 0.000e+00))
272       	((1.042e+01 -5.553e+00 -6.619e+01) (4.453e-01 1.120e-02 7.991e-02) (0.000e+00 0.000e+00 0.000e+00)) ((1.956e+01 -4.271e+01 7.076e+00) (-3.165e-02 -2.870e-02 2.072e-01) (0.000e+00 0.000e+00 0.000e+00))
273       	((1.042e+01 -5.557e+00 -6.618e+01) (4.452e-01 1.119e-02 7.989e-02) (0.000e+00 0.000e+00 0.000e+00)) ((1.956e+01 -4.270e+01 7.078e+00) (-3.165e-02 -2.870e-02 2.072e-01) (0.000e+00 0.000e+00 0.000e+00))
274       	((1.042e+01 -5.560e+00 -6.617e+01) (4.452e-01 1.119e-02 7.986e-02) (0.000e+00 0.000e+00 0.000e+00)) ((1.955e+01 -4.270e+01 7.079e+00) (-3.164e-02 -2.870e-02 2.071e-01) (0.000e+00 0.000e+00 0.000e+00))
275       	((1.042e+01 -5.563e+00 -6.616e+01) (4.452e-01 1.119e-02 7.984e-02) (0.000e+00 0.000e+00 0.000e+00)) ((1.955e+01 -4.269e+01 7.079e+00) (-3.164e-02 -2.870e-02 2.071e-01) (0.000e+00 0.000e+00 0.000e+00))
276       	((1.042e+01 -5.564e+00 -6.616e+01) (4.452e-01 1.121e-02 7.982e-02) (0.000e+00 0.000e+00 0.000e+00)) ((1.955e+01 -4.269e+01 7.079e+00) (-3.164e-02 -2.871e-02 2.071e-01) (0.000e+00 0.000e+00 0.000e+00))
277       	((1.042e+01 -5.564e+00 -6.615e+01) (4.452e-01 1.121e-02 7.980e-02) (0.000e+00 0.000e+00 0.000e+00)) ((1.955e+01 -4.269e+01 7.077e+00) (-3.163e-02 -2.872e-02 2.071e-01) (0.000e+00 0.000e+00 0.000e+00))
278       	((1.041e+01 -5.564e+00 -6.613e+01) (4.452e-01 1.122e-02 7.978e-02) (0.000e+00 0.000e+00 0.000e+00)) ((1.954e+01 -4.268e+01 7.074e+00) (-3.163e-02 -2.872e-02 2.071e-01) (0.000e+00 0.000e+00 0.000e+00))
279       	((1.041e+01 -5.563e+00 -6.611e+01) (4.452e-01 1.123e-02 7.976e-02) (0.000e+00 0.000e+00 0.000e+00)) ((1.954e+01 -4.267e+01 7.070e+00) (-3.163e-02 -2.873e-02 2.070e-01) (0.000e+00 0.000e+00 0.000e+00))
280       	((1.040e+01 -5.562e+00 -6.609e+01) (4.452e-01 1.124e-02 7.975e-02) (0.000e+00 0.000e+00 0.000e+00)) ((1.953e+01 -4.266e+01 7.066e+00) (-3.163e-02 -2.874e-02 2.070e-01) (0.000e+00 0.000e+00 0.000e+00))
281       	((1.039e+01 -5.563e+00 -6.606e+01) (4.452e-01 1.124e-02 7.973e-02) (0.000e+00 0.000e+00 0.000e+00)) ((1.952e+01 -4.264e+01 7.062e+00) (-3.163e-02 -2.874e-02 2.070e-01) (0.000e+00 0.000e+00 0.000e+00))
282       	((1.037e+01 -5.568e+00 -6.601e+01) (4.451e-01 1.123e-02 7.972e-02) (0.000e+00 0.000e+00 0.000e+00)) ((1.951e+01 -4.261e+01 7.058e+00) (-3.164e-02 -2.874e-02 2.070e-01) (0.000e+00 0.000e+00 0.000e+00))
283       	((1.035e+01 -5.575e+00 -6.595e+01) (4.450e-01 1.120e-02 7.972e-02) (0.000e+00 0.000e+00 0.000e+00)) ((1.948e+01 -4.258e+01 7.055e+00) (-3.164e-02 -2.873e-02 2.070e-01) (0.000e+00 0.000e+00 0.000e+00))
284       	((1.033e+01 -5.583e+00 -6.590e+01) (4.450e-01 1.117e-02 7.972e-02) (0.000e+00 0.000e+00 0.000e+00)) ((1.947e+01 -4.255e+01 7.054e+00) (-3.165e-02 -2.871e-02 2.069e-01) (0.000e+00 0.000e+00 0.000e+00))
285       	((1.031e+01 -5.594e+00 -6.583e+01) (4.448e-01 1.113e-02 7.972e-02) (0.000e+00 0.000e+00 0.000e+00)) ((1.944e+01 -4.251e+01 7.054e+00) (-3.166e-02 -2.869e-02 2.069e-01) (0.000e+00 0.000e+00 0.000e+00))
286       	((1.028e+01 -5.607e+00 -6.575e+01) (4.447e-01 1.108e-02 7.974e-02) (0.000e+00 0.000e+00 0.000e+00)) ((1.941e+01 -4.247e+01 7.055e+00) (-3.167e-02 -2.865e-02 2.069e-01) (0.000e+00 0.000e+00 0.000e+00))
287       	((1.026e+01 -5.620e+00 -6.567e+01) (4.445e-01 1.103e-02 7.975e-02) (0.000e+00 0.000e+00 0.000e+00)) ((1.938e+01 -4.242e+01 7.056e+00) (-3.168e-02 -2.861e-02 2.069e-01) (0.000e+00 0.000e+00 0.000e+00))
288       	((1.023e+01 -5.633e+00 -6.557e+01) (4.443e-01 1.097e-02 7.977e-02) (0.000e+00 0.000e+00 0.000e+00)) ((1.934e+01 -4.236e+01 7.055e+00) (-3.170e-02 -2.857e-02 2.068e-01) (0.000e+00 0.000e+00 0.000e+00))
289       	((1.019e+01 -5.646e+00 -6.544e+01) (4.441e-01 1.089e-02 7.980e-02) (0.000e+00 0.000e+00 0.000e+00)) ((1.930e+01 -4.229e+01 7.052e+00) (-3.172e-02 -2.852e-02 2.068e-01) (0.000e+00 0.000e+00 0.000e+00))
290       	((1.016e+01 -5.655e+00 -6.533e+01) (4.438e-01 1.082e-02 7.982e-02) (0.000e+00 0.000e+00 0.000e+00)) ((1.926e+01 -4.222e+01 7.050e+00) (-3.174e-02 -2.846e-02 2.067e-01) (0.000e+00 0.000e+00 0.000e+00))
291       	((1.015e+01 -5.660e+00 -6.524e+01) (4.435e-01 1.076e-02 7.984e-02) (0.000e+00 0.000e+00 0.000e+00)) ((1.923e+01 -4.217e+01 7.049e+00) (-3.176e-02 -2.841e-02 2.066e-01) (0.000e+00 0.000e+00 0.000e+00))
292       	((1.013e+01 -5.666e+00 -6.514e+01) (4.432e-01 1.069e-02 7.986e-02) (0.000e+00 0.000e+00 0.000e+00)) ((1.919e+01 -4.210e+01 7.047e+00) (-3.177e-02 -2.835e-02 2.066e-01) (0.000e+00 0.000e+00 0.000e+00))
293       	((1.012e+01 -5.670e+00 -6.505e+01) (4.430e-01 1.063e-02 7.987e-02) (0.000e+00 0.000e+00 0.000e+00)) ((1.916e+01 -4.205e+01 7.047e+00) (-3.179e-02 -2.830e-02 2.065e-01) (0.000e+00 0.000e+00 0.000e+00))
294       	((1.013e+01 -5.674e+00 -6.499e+01) (4.427e-01 1.057e-02 7.988e-02) (0.000e+00 0.000e+00 0.000e+00)) ((1.914e+01 -4.200e+01 7.048e+00) (-3.180e-02 -2.825e-02 2.064e-01) (0.000e+00 0.000e+00 0.000e+00))
295       	((1.013e+01 -5.678e+00 -6.493e+01) (4.425e-01 1.052e-02 7.988e-02) (0.000e+00 0.000e+00 0.000e+00)) ((1.912e+01 -4.196e+01 7.051e+00) (-3.181e-02 -2.821e-02 2.063e-01) (0.000e+00 0.000e+00 0.000e+00))
296       	((1.014e+01 -5.681e+00 -6.489e+01) (4.423e-01 1.049e-02 7.988e-02) (0.000e+00 0.000e+00 0.000e+00)) ((1.911e+01 -4.194e+01 7.055e+00) (-3.182e-02 -2.817e-02 2.063e-01) (0.000e+00 0.000e+00 0.000e+00))
297       	((1.015e+01 -5.684e+00 -6.487e+01) (4.421e-01 1.045e-02 7.988e-02) (0.000e+00 0.000e+00 0.000e+00)) ((1.910e+01 -4.192e+01 7.059e+00) (-3.183e-02 -2.814e-02 2.062e-01) (0.000e+00 0.000e+00 0.000e+00))
298       	((1.016e+01 -5.687e+00 -6.485e+01) (4.419e-01 1.044e-02 7.988e-02) (0.000e+00 0.000e+00 0.000e+00)) ((1.910e+01 -4.190e+01 7.064e+00) (-3.183e-02 -2.811e-02 2.061e-01) (0.000e+00 0.000e+00 0.000e+00))
299       	((1.018e+01 -5.688e+00 -6.487e+01) (4.418e-01 1.044e-02 7.988e-02) (0.000e+00 0.000e+00 0.000e+00)) ((1.910e+01 -4.191e+01 7.071e+00) (-3.183e-02 -2.809e-02 2.061e-01) (0.000e+00 0.000e+00 0.000e+00))
300       	((1.020e+01 -5.688e+00 -6.490e+01) (4.417e-01 1.046e-02 7.987e-02) (0.000e+00 0.000e+00 0.000e+00)) ((1.911e+01 -4.193e+01 7.077e+00) (-3.183e-02 -2.807e-02 2.060e-01) (0.000e+00 0.000e+00 0.000e+00))
301       	((1.022e+01 -5.688e+00 -6.494e+01) (4.417e-01 1.048e-02 7.986e-02) (0.000e+00 0.000e+00 0.000e+00)) ((1.912e+01 -4.194e+01 7.083e+00) (-3.183e-02 -2.806e-02 2.060e-01) (0.000e+00 0.000e+00 0.000e+00))
302       	((1.024e+01 -5.685e+00 -6.500e+01) (4.417e-01 1.053e-02 7.984e-02) (0.000e+00 0.000e+00 0.000e+00)) ((1.914e+01 -4.198e+01 7.089e+00) (-3.182e-02 -2.806e-02 2.060e-01) (0.000e+00 0.000e+00 0.000e+00))
303       	((1.027e+01 -5.680e+00 -6.508e+01) (4.417e-01 1.058e-02 7.982e-02) (0.000e+00 0.000e+00 0.000e+00)) ((1.917e+01 -4.202e+01 7.095e+00) (-3.181e-02 -2.807e-02 2.059e-01) (0.000e+00 0.000e+00 0.000e+00))
304       	((1.029e+01 -5.676e+00 -6.514e+01) (4.418e-01 1.064e-02 7.979e-02) (0.000e+00 0.000e+00 0.000e+00)) ((1.919e+01 -4.206e+01 7.098e+00) (-3.179e-02 -2.808e-02 2.059e-01) (0.000e+00 0.000e+00 0.000e+00))
305       	((1.031e+01 -5.667e+00 -6.523e+01) (4.419e-01 1.071e-02 7.977e-02) (0.000e+00 0.000e+00 0.000e+00)) ((1.922e+01 -4.211e+01 7.100e+00) (-3.178e-02 -2.811e-02 2.059e-01) (0.000e+00 0.000e+00 0.000e+00))
306       	((1.034e+01 -5.653e+00 -6.534e+01) (4.420e-01 1.080e-02 7.974e-02) (0.000e+00 0.000e+00 0.000e+00)) ((1.925e+01 -4.218e+01 7.101e+00) (-3.176e-02 -2.814e-02 2.059e-01) (0.000e+00 0.000e+00 0.000e+00))
307       	((1.036e+01 -5.642e+00 -6.543e+01) (4.422e-01 1.089e-02 7.972e-02) (0.000e+00 0.000e+00 0.000e+00)) ((1.928e+01 -4.223e+01 7.101e+00) (-3.174e-02 -2.817e-02 2.059e-01) (0.000e+00 0.000e+00 0.000e+00))
308       	((1.037e+01 -5.632e+00 -6.550e+01) (4.424e-01 1.096e-02 7.970e-02) (0.000e+00 0.000e+00 0.000e+00)) ((1.931e+01 -4.227e+01 7.099e+00) (-3.172e-02 -2.821e-02 2.060e-01) (0.000e+00 0.000e+00 0.000e+00))
309       	((1.039e+01 -5.618e+00 -6.560e+01) (4.426e-01 1.104e-02 7.967e-02) (0.000e+00 0.000e+00 0.000e+00)) ((1.935e+01 -4.233e+01 7.097e+00) (-3.170e-02 -2.826e-02 2.060e-01) (0.000e+00 0.000e+00 0.000e+00))
310       	((1.041e+01 -5.605e+00 -6.571e+01) (4.428e-01 1.112e-02 7.964e-02) (0.000e+00 0.000e+00 0.000e+00)) ((1.939e+01 -4.240e+01 7.095e+00) (-3.168e-02 -2.831e-02 2.060e-01) (0.000e+00 0.000e+00 0.000e+00))
311       	((1.042e+01 -5.597e+00 -6.579e+01) (4.430e-01 1.118e-02 7.962e-02) (0.000e+00 0.000e+00 0.000e+00)) ((1.941e+01 -4.245e+01 7.093e+00) (-3.166e-02 -2.836e-02 2.061e-01) (0.000e+00 0.000e+00 0.000e+00))
312       	((1.044e+01 -5.588e+00 -6.589e+01) (4.433e-01 1.123e-02 7.960e-02) (0.000e+00 0.000e+00 0.000e+00)) ((1.945e+01 -4.251e+01 7.093e+00) (-3.165e-02 -2.841e-02 2.061e-01) (0.000e+00 0.000e+00 0.000e+00))
313       	((1.046e+01 -5.583e+00 -6.599e+01) (4.435e-01 1.128e-02 7.958e-02) (0.000e+00 0.000e+00 0.000e+00)) ((1.948e+01 -4.257e+01 7.093e+00) (-3.163e-02 -2.846e-02 2.062e-01) (0.000e+00 0.000e+00 0.000e+00))
314       	((1.046e+01 -5.583e+00 -6.605e+01) (4.438e-01 1.132e-02 7.958e-02) (0.000e+00 0.000e+00 0.000e+00)) ((1.950e+01 -4.262e+01 7.093e+00) (-3.162e-02 -2.851e-02 2.063e-01) (0.000e+00 0.000e+00 0.000e+00))
315       	((1.046e+01 -5.587e+00 -6.610e+01) (4.440e-01 1.132e-02 7.958e-02) (0.000e+00 0.000e+00 0.000e+00)) ((1.952e+01 -4.265e+01 7.094e+00) (-3.162e-02 -2.854e-02 2.064e-01) (0.000e+00 0.000e+00 0.000e+00))
316       	((1.045e+01 -5.594e+00 -6.615e+01) (4.442e-01 1.132e-02 7.960e-02) (0.000e+00 0.000e+00 0.000e+00)) ((1.954e+01 -4.268e+01 7.098e+00) (-3.162e-02 -2.857e-02 2.065e-01) (0.000e+00 0.000e+00 0.000e+00))
317       	((1.045e+01 -5.604e+00 -6.618e+01) (4.444e-01 1.131e-02 7.963e-02) (0.000e+00 0.000e+00 0.000e+00)) ((1.954e+01 -4.271e+01 7.102e+00) (-3.163e-02 -2.859e-02 2.066e-01) (0.000e+00 0.000e+00 0.000e+00))
318       	((1.045e+01 -5.616e+00 -6.621e+01) (4.446e-01 1.129e-02 7.967e-02) (0.000e+00 0.000e+00 0.000e+00)) ((1.955e+01 -4.273e+01 7.110e+00) (-3.164e-02 -2.860e-02 2.067e-01) (0.000e+00 0.000e+00 0.000e+00))
319       	((1.045e+01 -5.631e+00 -6.624e+01) (4.448e-01 1.126e-02 7.972e-02) (0.000e+00 0.000e+00 0.000e+00)) ((1.956e+01 -4.275e+01 7.120e+00) (-3.166e-02 -2.861e-02 2.068e-01) (0.000e+00 0.000e+00 0.000e+00))
320       	((1.045e+01 -5.646e+00 -6.627e+01) (4.450e-01 1.123e-02 7.978e-02) (0.000e+00 0.000e+00 0.000e+00)) ((1.956e+01 -4.277e+01 7.131e+00) (-3.168e-02 -2.861e-02 2.069e-01) (0.000e+00 0.000e+00 0.000e+00))
321       	((1.046e+01 -5.660e+00 -6.630e+01) (4.452e-01 1.120e-02 7.984e-02) (0.000e+00 0.000e+00 0.000e+00)) ((1.957e+01 -4.279e+01 7.143e+00) (-3.170e-02 -2.860e-02 2.070e-01) (0.000e+00 0.000e+00 0.000e+00))
322       	((1.047e+01 -5.670e+00 -6.634e+01) (4.453e-01 1.117e-02 7.991e-02) (0.000e+00 0.000e+00 0.000e+00)) ((1.958e+01 -4.282e+01 7.153e+00) (-3.173e-02 -2.859e-02 2.071e-01) (0.000e+00 0.000e+00 0.000e+00))
323       	((1.048e+01 -5.677e+00 -6.638e+01) (4.454e-01 1.115e-02 7.998e-02) (0.000e+00 0.000e+00 0.000e+00)) ((1.959e+01 -4.284e+01 7.162e+00) (-3.175e-02 -2.858e-02 2.072e-01) (0.000e+00 0.000e+00 0.000e+00))
324       	((1.049e+01 -5.678e+00 -6.642e+01) (4.456e-01 1.114e-02 8.004e-02) (0.000e+00 0.000e+00 0.000e+00)) ((1.960e+01 -4.286e+01 7.167e+00) (-3.177e-02 -2.857e-02 2.072e-01) (0.000e+00 0.000e+00 0.000e+00))
325       	((1.050e+01 -5.678e+00 -6.646e+01) (4.457e-01 1.114e-02 8.011e-02) (0.000e+00 0.000e+00 0.000e+00)) ((1.961e+01 -4.289e+01 7.171e+00) (-3.179e-02 -2.856e-02 2.073e-01) (0.000e+00 0.000e+00 0.000e+00))
326       	((1.050e+01 -5.675e+00 -6.648e+01) (4.458e-01 1.114e-02 8.016e-02) (0.000e+00 0.000e+00 0.000e+00)) ((1.962e+01 -4.290e+01 7.171e+00) (-3.181e-02 -2.855e-02 2.074e-01) (0.000e+00 0.000e+00 0.000e+00))
327       	((1.051e+01 -5.672e+00 -6.650e+01) (4.459e-01 1.113e-02 8.021e-02) (0.000e+00 0.000e+00 0.000e+00)) ((1.963e+01 -4.291e+01 7.171e+00) (-3.182e-02 -2.855e-02 2.074e-01) (0.000e+00 0.000e+00 0.000e+00))
328       	((1.052e+01 -5.668e+00 -6.652e+01) (4.460e-01 1.114e-02 8.026e-02) (0.000e+00 0.000e+00 0.000e+00)) ((1.964e+01 -4.293e+01 7.170e+00) (-3.184e-02 -2.854e-02 2.075e-01) (0.000e+00 0.000e+00 0.000e+00))
329       	((1.053e+01 -5.663e+00 -6.654e+01) (4.461e-01 1.115e-02 8.029e-02) (0.000e+00 0.000e+00 0.000e+00)) ((1.964e+01 -4.294e+01 7.171e+00) (-3.185e-02 -2.855e-02 2.075e-01) (0.000e+00 0.000e+00 0.000e+00))
330       	((1.054e+01 -5.659e+00 -6.657e+01) (4.462e-01 1.116e-02 8.033e-02) (0.000e+00 0.000e+00 0.000e+00)) ((1.965e+01 -4.295e+01 7.172e+00) (-3.185e-02 -2.855e-02 2.076e-01) (0.000e+00 0.000e+00 0.000e+00))
331       	((1.054e+01 -5.657e+00 -6.658e+01) (4.463e-01 1.117e-02 8.036e-02) (0.000e+00 0.000e+00 0.000e+00)) ((1.966e+01 -4.296e+01 7.172e+00) (-3.186e-02 -2.856e-02 2.076e-01) (0.000e+00 0.000e+00 0.000e+00))
332       	((1.054e+01 -5.657e+00 -6.657e+01) (4.464e-01 1.117e-02 8.039e-02) (0.000e+00 0.000e+00 0.000e+00)) ((1.965e+01 -4.295e+01 7.171e+00) (-3.187e-02 -2.856e-02 2.077e-01) (0.000e+00 0.000e+00 0.000e+00))
333       	((1.053e+01 -5.658e+00 -6.654e+01) (4.464e-01 1.117e-02 8.042e-02) (0.000e+00 0.000e+00 0.000e+00)) ((1.965e+01 -4.294e+01 7.169e+00) (-3.188e-02 -2.856e-02 2.077e-01) (0.000e+00 0.000e+00 0.000e+00))
334       	((1.052e+01 -5.659e+00 -6.650e+01) (4.465e-01 1.116e-02 8.045e-02) (0.000e+00 0.000e+00 0.000e+00)) ((1.963e+01 -4.291e+01 7.166e+00) (-3.189e-02 -2.856e-02 2.077e-01) (0.000e+00 0.000e+00 0.000e+00))
335       	((1.052e+01 -5.658e+00 -6.646e+01) (4.465e-01 1.116e-02 8.047e-02) (0.000e+00 0.000e+00 0.000e+00)) ((1.962e+01 -4.289e+01 7.162e+00) (-3.191e-02 -2.856e-02 2.078e-01) (0.000e+00 0.000e+00 0.000e+00))
336       	((1.051e+01 -5.657e+00 -6.642e+01) (4.465e-01 1.116e-02 8.050e-02) (0.000e+00 0.000e+00 0.000e+00)) ((1.961e+01 -4.286e+01 7.159e+00) (-3.192e-02 -2.855e-02 2.078e-01) (0.000e+00 0.000e+00 0.000e+00))
337       	((1.050e+01 -5.655e+00 -6.637e+01) (4.465e-01 1.115e-02 8.051e-02) (0.000e+00 0.000e+00 0.000e+00)) ((1.960e+01 -4.284e+01 7.155e+00) (-3.192e-02 -2.855e-02 2.078e-01) (0.000e+00 0.000e+00 0.000e+00))
338       	((1.050e+01 -5.652e+00 -6.635e+01) (4.465e-01 1.115e-02 8.052e-02) (0.000e+00 0.000e+00 0.000e+00)) ((1.959e+01 -4.282e+01 7.151e+00) (-3.193e-02 -2.855e-02 2.078e-01) (0.000e+00 0.000e+00 0.000e+00))
339       	((1.049e+01 -5.647e+00 -6.631e+01) (4.466e-01 1.116e-02 8.052e-02) (0.000e+00 0.000e+00 0.000e+00)) ((1.958e+01 -4.280e+01 7.147e+00) (-3.193e-02 -2.855e-02 2.078e-01) (0.000e+00 0.000e+00 0.000e+00))
340       	((1.048e+01 -5.642e+00 -6.627e+01) (4.466e-01 1.116e-02 8.051e-02) (0.000e+00 0.000e+00 0.000e+00)) ((1.957e+01 -4.277e+01 7.140e+00) (-3.193e-02 -2.856e-02 2.078e-01) (0.000e+00 0.000e+00 0.000e+00))
341       	((1.048e+01 -5.634e+00 -6.624e+01) (4.466e-01 1.116e-02 8.051e-02) (0.000e+00 0.000e+00 0.000e+00)) ((1.956e+01 -4.275e+01 7.134e+00) (-3.193e-02 -2.857e-02 2.078e-01) (0.000e+00 0.000e+00 0.000e+00))
342       	((1.048e+01 -5.626e+00 -6.621e+01) (4.466e-01 1.118e-02 8.050e-02) (0.000e+00 0.000e+00 0.000e+00)) ((1.955e+01 -4.273e+01 7.127e+00) (-3.193e-02 -2.857e-02 2.077e-01) (0.000e+00 0.000e+00 0.000e+00))
343       	((1.047e+01 -5.617e+00 -6.618e+01) (4.466e-01 1.119e-02 8.048e-02) (0.000e+00 0.000e+00 0.000e+00)) ((1.955e+01 -4.271e+01 7.120e+00) (-3.193e-02 -2.858e-02 2.077e-01) (0.000e+00 0.000e+00 0.000e+00))
344       	((1.047e+01 -5.609e+00 -6.615e+01) (4.466e-01 1.120e-02 8.047e-02) (0.000e+00 0.000e+00 0.000e+00)) ((1.954e+01 -4.269e+01 7.114e+00) (-3.193e-02 -2.859e-02 2.077e-01) (0.000e+00 0.000e+00 0.000e+00))
345       	((1.046e+01 -5.603e+00 -6.611e+01) (4.466e-01 1.120e-02 8.045e-02) (0.000e+00 0.000e+00 0.000e+00)) ((1.953e+01 -4.267e+01 7.107e+00) (-3.193e-02 -2.860e-02 2.077e-01) (0.000e+00 0.000e+00 0.000e+00))
346       	((1.046e+01 -5.600e+00 -6.607e+01) (4.466e-01 1.121e-02 8.045e-02) (0.000e+00 0.000e+00 0.000e+00)) ((1.952e+01 -4.264e+01 7.104e+00) (-3.193e-02 -2.860e-02 2.077e-01) (0.000e+00 0.000e+00 0.000e+00))
347       	((1.045e+01 -5.601e+00 -6.604e+01) (4.465e-01 1.120e-02 8.045e-02) (0.000e+00 0.000e+00 0.000e+00)) ((1.951e+01 -4.262e+01 7.103e+00) (-3.193e-02 -2.859e-02 2.076e-01) (0.000e+00 0.000e+00 0.000e+00))
348       	((1.045e+01 -5.604e+00 -6.602e+01) (4.465e-01 1.120e-02 8.046e-02) (0.000e+00 0.000e+00 0.000e+00)) ((1.950e+01 -4.261e+01 7.106e+00) (-3.194e-02 -2.857e-02 2.076e-01) (0.000e+00 0.000e+00 0.000e+00))
349       	((1.046e+01 -5.609e+00 -6.602e+01) (4.464e-01 1.120e-02 8.048e-02) (0.000e+00 0.000e+00 0.000e+00)) ((1.950e+01 -4.261e+01 7.113e+00) (-3.194e-02 -2.856e-02 2.076e-01) (0.000e+00 0.000e+00 0.000e+00))
350       	((1.046e+01 -5.614e+00 -6.604e+01) (4.464e-01 1.120e-02 8.050e-02) (0.000e+00 0.000e+00 0.000e+00)) ((1.950e+01 -4.262e+01 7.122e+00) (-3.194e-02 -2.854e-02 2.076e-01) (0.000e+00 0.000e+00 0.000e+00))
351       	((1.047e+01 -5.620e+00 -6.606e+01) (4.463e-01 1.120e-02 8.051e-02) (0.000e+00 0.000e+00 0.000e+00)) ((1.950e+01 -4.263e+01 7.130e+00) (-3.194e-02 -2.852e-02 2.076e-01) (0.000e+00 0.000e+00 0.000e+00))
352       	((1.048e+01 -5.625e+00 -6.610e+01) (4.463e-01 1.120e-02 8.052e-02) (0.000e+00 0.000e+00 0.000e+00)) ((1.951e+01 -4.265e+01 7.138e+00) (-3.194e-02 -2.850e-02 2.076e-01) (0.000e+00 0.000e+00 0.000e+00))
353       	((1.048e+01 -5.630e+00 -6.611e+01) (4.462e-01 1.119e-02 8.054e-02) (0.000e+00 0.000e+00 0.000e+00)) ((1.951e+01 -4.266e+01 7.143e+00) (-3.194e-02 -2.849e-02 2.076e-01) (0.000e+00 0.000e+00 0.000e+00))
354       	((1.048e+01 -5.633e+00 -6.611e+01) (4.462e-01 1.118e-02 8.055e-02) (0.000e+00 0.000e+00 0.000e+00)) ((1.951e+01 -4.266e+01 7.145e+00) (-3.195e-02 -2.847e-02 2.076e-01) (0.000e+00 0.000e+00 0.000e+00))
355       	((1.047e+01 -5.637e+00 -6.609e+01) (4.461e-01 1.116e-02 8.058e-02) (0.000e+00 0.000e+00 0.000e+00)) ((1.950e+01 -4.265e+01 7.145e+00) (-3.196e-02 -2.846e-02 2.076e-01) (0.000e+00 0.000e+00 0.000e+00))
356       	((1.046e+01 -5.640e+00 -6.606e+01) (4.461e-01 1.114e-02 8.060e-02) (0.000e+00 0.000e+00 0.000e+00)) ((1.949e+01 -4.263e+01 7.144e+00) (-3.197e-02 -2.844e-02 2.076e-01) (0.000e+00 0.000e+00 0.000e+00))
357       	((1.046e+01 -5.642e+00 -6.604e+01) (4.460e-01 1.111e-02 8.063e-02) (0.000e+00 0.000e+00 0.000e+00)) ((1.949e+01 -4.261e+01 7.143e+00) (-3.198e-02 -2.842e-02 2.076e-01) (0.000e+00 0.000e+00 0.000e+00))
358       	((1.045e+01 -5.647e+00 -6.599e+01) (4.459e-01 1.107e-02 8.065e-02) (0.000e+00 0.000e+00 0.000e+00)) ((1.947e+01 -4.259e+01 7.141e+00) (-3.199e-02 -2.840e-02 2.076e-01) (0.000e+00 0.000e+00 0.000e+00))
359       	((1.043e+01 -5.654e+00 -6.592e+01) (4.458e-01 1.101e-02 8.067e-02) (0.000e+00 0.000e+00 0.000e+00)) ((1.945e+01 -4.254e+01 7.137e+00) (-3.201e-02 -2.837e-02 2.075e-01) (0.000e+00 0.000e+00 0.000e+00))
360       	((1.041e+01 -5.658e+00 -6.585e+01) (4.456e-01 1.096e-02 8.068e-02) (0.000e+00 0.000e+00 0.000e+00)) ((1.943e+01 -4.250e+01 7.133e+00) (-3.202e-02 -2.835e-02 2.075e-01) (0.000e+00 0.000e+00 0.000e+00))
